 Gaussian 16, Revision C.01,
 Gaussian 16:  AS64L-G16RevC.01  3-Jul-2019

 -------------------------------------------------
 # opt=(calcfc,ts,noeigentest) freq 6-31g(d) m062x
 -------------------------------------------------

 -------------------
 Title Card Required
 -------------------
 Symbolic Z-matrix:
 Charge =  0 Multiplicity = 1

 SCF Done:  E(RM062X) =  -462.169713424     A.U. after   16 cycles
 SCF Done:  E(RM062X) =  -462.178931142     A.U. after   17 cycles
 SCF Done:  E(RM062X) =  -462.180485535     A.U. after   14 cycles
 SCF Done:  E(RM062X) =  -462.180603020     A.U. after   13 cycles
 SCF Done:  E(RM062X) =  -462.180619390     A.U. after   12 cycles
 SCF Done:  E(RM062X) =  -462.180623659     A.U. after   11 cycles
 SCF Done:  E(RM062X) =  -462.180625098     A.U. after   10 cycles
 SCF Done:  E(RM062X) =  -462.180625797     A.U. after    9 cycles
 SCF Done:  E(RM062X) =  -462.180626172     A.U. after   10 cycles
 SCF Done:  E(RM062X) =  -462.180626597     A.U. after    8 cycles
 SCF Done:  E(RM062X) =  -462.180626698     A.U. after    8 cycles
 Optimization completed.
    -- Stationary point found.
 Normal termination of Gaussian 16 at Tue Jun 21 10:39:07 2022.

 --------------------------------------------------------------------
 #N Geom=AllCheck Guess=TCheck SCRF=Check GenChk RM062X/6-31G(d) Freq
 --------------------------------------------------------------------

 Structure from the checkpoint file:  "DATS_13_exo_ii.chk"
 -------------------
 Title Card Required
 -------------------
 Charge =  0 Multiplicity = 1

                         Standard orientation:
 ---------------------------------------------------------------------
 Center     Atomic      Atomic             Coordinates (Angstroms)
 Number     Number       Type             X           Y           Z
 ---------------------------------------------------------------------
      1          6           0       -1.553318    0.904444    1.043212
      2          6           0       -0.631469    1.816600   -0.524342
      3          6           0        0.488305   -0.790322   -0.701942
      4          6           0       -1.305681   -0.463201    0.989105
      5          1           0       -1.143280    1.483383    1.863478
      6          1           0       -2.516721    1.238018    0.666579
      7          1           0       -0.656441   -0.954545    1.704428
      8          6           0        0.718241    1.592067   -0.316813
      9          6           0        1.258912    0.289542   -0.342075
     10          1           0       -0.997828    2.836869   -0.449329
     11          1           0        0.850823   -1.808701   -0.622998
     12          1           0       -1.204476    1.188198   -1.202940
     13          1           0       -0.350225   -0.638646   -1.366666
     14          6           0       -2.142755   -1.289863    0.125571
     15          8           0       -2.868461   -0.834537   -0.742692
     16          1           0       -2.063051   -2.386968    0.269204
     17          8           0        2.511411    0.199989    0.193365
     18          6           0        3.119945   -1.070257    0.195837
     19          1           0        4.136427   -0.922032    0.560483
     20          1           0        2.595294   -1.765031    0.863844
     21          1           0        3.148824   -1.498967   -0.813643
     22          1           0        1.343970    2.370745    0.110860
 ---------------------------------------------------------------------

 SCF Done:  E(RM062X) =  -462.180626698     A.U. after    1 cycles

 The electronic state is 1-A.
 Alpha  occ. eigenvalues --  -19.66978 -19.61853 -10.62030 -10.60985 -10.60165
 Alpha  occ. eigenvalues --  -10.56567 -10.56057 -10.55641 -10.55339 -10.55030
 Alpha  occ. eigenvalues --   -1.19030  -1.14430  -0.92386  -0.86913  -0.82687
 Alpha  occ. eigenvalues --   -0.80593  -0.73436  -0.70391  -0.62502  -0.60700
 Alpha  occ. eigenvalues --   -0.59272  -0.57369  -0.55601  -0.54930  -0.51204
 Alpha  occ. eigenvalues --   -0.50298  -0.47870  -0.47319  -0.46303  -0.45481
 Alpha  occ. eigenvalues --   -0.43461  -0.42999  -0.42250  -0.40393  -0.37996
 Alpha  occ. eigenvalues --   -0.31250  -0.28369  -0.26499
 Alpha virt. eigenvalues --   -0.02390   0.04007   0.10711   0.12925   0.14835
 Alpha virt. eigenvalues --    0.16078   0.16440   0.18002   0.18471   0.19271
 Alpha virt. eigenvalues --    0.20576   0.20722   0.22415   0.22795   0.24637

 Mulliken charges:
               1
     1  C   -0.374141
     2  C   -0.395945
     3  C   -0.480637
     4  C   -0.168965
     5  H    0.183141
     6  H    0.214348
     7  H    0.165142
     8  C   -0.138346
     9  C    0.416185
    10  H    0.182817
    11  H    0.173039
    12  H    0.213762
    13  H    0.208103
    14  C    0.220105
    15  O   -0.458579
    16  H    0.118782
    17  O   -0.522391
    18  C   -0.239271
    19  H    0.187568
    20  H    0.157308
    21  H    0.162426
    22  H    0.175549
 Sum of Mulliken charges =   0.00000

 Dipole moment (field-independent basis, Debye):
    X=              2.5676    Y=             -0.4037    Z=              1.5140  Tot=              3.0080
 Quadrupole moment (field-independent basis, Debye-Ang):
   XX=            -66.7375   YY=            -53.8097   ZZ=            -62.0195
   XY=             -7.2100   XZ=             -3.2572   YZ=             -0.7007

  Exact polarizability:     121.892       2.592     105.719      -1.836       0.027      69.442
 Approx polarizability:     151.505       9.132     141.925      -3.502      -1.060      94.173

 ******    1 imaginary frequencies (negative Signs) ******

                      1                      2                      3
                      A                      A                      A
 Frequencies --   -510.8809                72.4786                81.1226
 Red. masses --      8.5787                 3.8512                 3.3738
 Frc consts  --      1.3192                 0.0119                 0.0131
 IR Inten    --      7.5930                 0.3931                 1.9862

                      4                      5                      6
                      A                      A                      A
 Frequencies --    123.3725               146.0329               205.6695
 Red. masses --      7.5789                 4.9276                 3.3894
 Frc consts  --      0.0680                 0.0619                 0.0845
 IR Inten    --      7.4841                 4.5165                14.0271

                      7                      8                      9
                      A                      A                      A
 Frequencies --    225.1846               287.2831               299.8328
 Red. masses --      2.2382                 2.5573                 1.2792
 Frc consts  --      0.0669                 0.1244                 0.0678
 IR Inten    --      4.9293                 5.4436                 0.5490

                     10                     11                     12
                      A                      A                      A
 Frequencies --    318.9700               388.0721               422.1266
 Red. masses --      3.1734                 3.3142                 2.9066
 Frc consts  --      0.1902                 0.2941                 0.3052
 IR Inten    --      8.5507                 5.7774                 1.6970

                     13                     14                     15
                      A                      A                      A
 Frequencies --    454.1762               514.1809               552.0944
 Red. masses --      3.1954                 3.3916                 2.2706
 Frc consts  --      0.3883                 0.5283                 0.4078
 IR Inten    --     10.4408                 0.5537                 1.4004

                     16                     17                     18
                      A                      A                      A
 Frequencies --    608.4870               689.8020               780.5690
 Red. masses --      2.4504                 2.1913                 1.2356
 Frc consts  --      0.5345                 0.6143                 0.4436
 IR Inten    --      4.3994                13.4348                 1.5816

                     19                     20                     21
                      A                      A                      A
 Frequencies --    802.9628               835.7142               889.1148
 Red. masses --      1.2553                 1.6773                 2.5073
 Frc consts  --      0.4769                 0.6902                 1.1678
 IR Inten    --      4.4176                22.3360                26.0238

                     22                     23                     24
                      A                      A                      A
 Frequencies --    898.1995               951.6972               964.4527
 Red. masses --      1.2722                 1.5821                 1.2189
 Frc consts  --      0.6047                 0.8442                 0.6680
 IR Inten    --     27.6861                28.2122                13.8803

                     25                     26                     27
                      A                      A                      A
 Frequencies --    986.4568              1011.7732              1029.8781
 Red. masses --      1.3956                 1.6591                 1.6158
 Frc consts  --      0.8002                 1.0007                 1.0097
 IR Inten    --     13.4716                43.0119                 3.1078

                     28                     29                     30
                      A                      A                      A
 Frequencies --   1038.3690              1103.8267              1113.8786
 Red. masses --      1.3712                 1.2598                 1.3241
 Frc consts  --      0.8711                 0.9044                 0.9679
 IR Inten    --     17.3402                 4.7665                 4.5972

                     31                     32                     33
                      A                      A                      A
 Frequencies --   1119.2613              1152.3513              1194.5018
 Red. masses --      1.1945                 3.9136                 1.2779
 Frc consts  --      0.8817                 3.0620                 1.0743
 IR Inten    --     14.3007                61.5564                 1.3540

                     34                     35                     36
                      A                      A                      A
 Frequencies --   1236.9404              1260.9214              1285.8942
 Red. masses --      1.4271                 1.4730                 1.4529
 Frc consts  --      1.2865                 1.3799                 1.4154
 IR Inten    --      3.0241                 9.7406                30.6343

                     37                     38                     39
                      A                      A                      A
 Frequencies --   1363.0732              1426.4664              1438.7238
 Red. masses --      3.2276                 1.2373                 1.3238
 Frc consts  --      3.5332                 1.4833                 1.6144
 IR Inten    --    186.2565                15.1501                44.3626

                     40                     41                     42
                      A                      A                      A
 Frequencies --   1454.7573              1502.4737              1523.6366
 Red. masses --      1.4814                 1.3326                 1.3034
 Frc consts  --      1.8472                 1.7724                 1.7827
 IR Inten    --     47.8112                 9.7521                34.3629

                     43                     44                     45
                      A                      A                      A
 Frequencies --   1529.2383              1544.2255              1553.9215
 Red. masses --      1.2550                 1.0999                 1.6807
 Frc consts  --      1.7291                 1.5453                 2.3911
 IR Inten    --     12.4787                30.3421                78.6445

                     46                     47                     48
                      A                      A                      A
 Frequencies --   1625.9209              1645.9437              1808.3376
 Red. masses --      2.8900                 3.2454                 8.5953
 Frc consts  --      4.5013                 5.1802                16.5605
 IR Inten    --      7.1504                95.5011               220.4562

                     49                     50                     51
                      A                      A                      A
 Frequencies --   2980.9401              3057.5149              3120.2025
 Red. masses --      1.0849                 1.0354                 1.1058
 Frc consts  --      5.6800                 5.7027                 6.3431
 IR Inten    --    149.2490                38.0437                36.5591

                     52                     53                     54
                      A                      A                      A
 Frequencies --   3173.3728              3188.4441              3196.4145
 Red. masses --      1.0601                 1.0567                 1.1001
 Frc consts  --      6.2899                 6.3294                 6.6221
 IR Inten    --      2.6146                 2.5146                23.6167

                     55                     56                     57
                      A                      A                      A
 Frequencies --   3225.5304              3235.9232              3251.9561
 Red. masses --      1.0919                 1.0593                 1.0933
 Frc consts  --      6.6932                 6.5354                 6.8120
 IR Inten    --      1.0064                 1.6891                 5.0061

                     58                     59                     60
                      A                      A                      A
 Frequencies --   3258.1233              3281.1025              3323.6700
 Red. masses --      1.1133                 1.1152                 1.1154
 Frc consts  --      6.9629                 7.0737                 7.2594
 IR Inten    --      6.9224                 3.1321                 1.0214

 - Thermochemistry -
 -------------------
 Temperature   298.150 Kelvin.  Pressure   1.00000 Atm.
 Atom     1 has atomic number  6 and mass  12.00000

 Molecular mass:   140.08373 amu.
 Principal axes and moments of inertia in atomic units:
                           1         2         3
     Eigenvalues --   823.837822135.750762536.05853
           X            0.99920  -0.03992  -0.00301
           Y            0.03992   0.99920   0.00083
           Z            0.00297  -0.00095   1.00000
 This molecule is an asymmetric top.
 Rotational symmetry number  1.
 Warning -- assumption of classical behavior for rotation
           may cause significant error
 Rotational temperatures (Kelvin)      0.10513     0.04055     0.03415
 Rotational constants (GHZ):           2.19065     0.84501     0.71163
    1 imaginary frequencies ignored.
 Zero-point vibrational energy     489006.9 (Joules/Mol)
                                  116.87544 (Kcal/Mol)
 Warning -- explicit consideration of  15 degrees of freedom as
           vibrations may cause significant error
 Vibrational temperatures:    104.28   116.72   177.51   210.11   295.91
          (Kelvin)            323.99   413.34   431.39   458.93   558.35
                              607.35   653.46   739.79   794.34   875.48
                              992.47  1123.06  1155.28  1202.41  1279.24
                             1292.31  1369.28  1387.63  1419.29  1455.72
                             1481.76  1493.98  1588.16  1602.62  1610.37
                             1657.98  1718.62  1779.68  1814.18  1850.11
                             1961.16  2052.37  2070.00  2093.07  2161.72
                             2192.17  2200.23  2221.80  2235.75  2339.34
                             2368.15  2601.79  4288.91  4399.08  4489.28
                             4565.78  4587.46  4598.93  4640.82  4655.77
                             4678.84  4687.71  4720.77  4782.02

 Zero-point correction=                           0.186253 (Hartree/Particle)
 Thermal correction to Energy=                    0.196629
 Thermal correction to Enthalpy=                  0.197573
 Thermal correction to Gibbs Free Energy=         0.150485
 Sum of electronic and zero-point Energies=           -461.994374
 Sum of electronic and thermal Energies=              -461.983998
 Sum of electronic and thermal Enthalpies=            -461.983053
 Sum of electronic and thermal Free Energies=         -462.030141

                     E (Thermal)             CV                S
                      KCal/Mol        Cal/Mol-Kelvin    Cal/Mol-Kelvin
 Total                  123.387             38.700             99.105
 Electronic               0.000              0.000              0.000
 Translational            0.889              2.981             40.723
 Rotational               0.889              2.981             29.880
 Vibrational            121.609             32.738             28.503
 Vibration     1          0.599              1.967              4.085
 Vibration     2          0.600              1.962              3.864
 Vibration     3          0.610              1.930              3.047
 Vibration     4          0.617              1.907              2.723
 Vibration     5          0.640              1.832              2.082
 Vibration     6          0.650              1.803              1.917
 Vibration     7          0.684              1.697              1.490
 Vibration     8          0.692              1.674              1.418
 Vibration     9          0.705              1.637              1.315
 Vibration    10          0.756              1.496              1.008
 Vibration    11          0.784              1.422              0.885
 Vibration    12          0.813              1.352              0.783
 Vibration    13          0.869              1.219              0.624
 Vibration    14          0.907              1.135              0.540
 Vibration    15          0.967              1.014              0.435

                           ! Non-Optimized Parameters !
 Normal termination of Gaussian 16 at Tue Jun 21 10:40:37 2022.
