 Gaussian 16, Revision C.01,
 Gaussian 16:  AS64L-G16RevC.01  3-Jul-2019

 -------------------------------------------------
 # opt=(calcfc,ts,noeigentest) freq 6-31g(d) m062x
 -------------------------------------------------

 -------------------
 Title Card Required
 -------------------
 Symbolic Z-matrix:
 Charge =  0 Multiplicity = 1

 SCF Done:  E(RM062X) =  -462.175004802     A.U. after   17 cycles
 SCF Done:  E(RM062X) =  -462.183688798     A.U. after   16 cycles
 SCF Done:  E(RM062X) =  -462.184137746     A.U. after   14 cycles
 SCF Done:  E(RM062X) =  -462.184285424     A.U. after   14 cycles
 SCF Done:  E(RM062X) =  -462.184332707     A.U. after   13 cycles
 SCF Done:  E(RM062X) =  -462.183802144     A.U. after   14 cycles
 SCF Done:  E(RM062X) =  -462.184337008     A.U. after   14 cycles
 SCF Done:  E(RM062X) =  -462.184349441     A.U. after   12 cycles
 SCF Done:  E(RM062X) =  -462.184351265     A.U. after   10 cycles
 SCF Done:  E(RM062X) =  -462.184353114     A.U. after   11 cycles
 SCF Done:  E(RM062X) =  -462.184356213     A.U. after   13 cycles
 SCF Done:  E(RM062X) =  -462.184356513     A.U. after   10 cycles
 SCF Done:  E(RM062X) =  -462.184356614     A.U. after   10 cycles
 SCF Done:  E(RM062X) =  -462.184356629     A.U. after    9 cycles
 Optimization completed.
    -- Stationary point found.
 Normal termination of Gaussian 16 at Tue Jun 21 10:20:39 2022.

 --------------------------------------------------------------------
 #N Geom=AllCheck Guess=TCheck SCRF=Check GenChk RM062X/6-31G(d) Freq
 --------------------------------------------------------------------

 Structure from the checkpoint file:  "DATS_14_endo_ii.chk"
 -------------------
 Title Card Required
 -------------------
 Charge =  0 Multiplicity = 1

                         Standard orientation:
 ---------------------------------------------------------------------
 Center     Atomic      Atomic             Coordinates (Angstroms)
 Number     Number       Type             X           Y           Z
 ---------------------------------------------------------------------
      1          6           0       -0.892267   -1.197547    1.224135
      2          6           0        0.539899    0.151552    1.457718
      3          6           0       -1.270803    1.942485    0.091217
      4          6           0       -1.932399   -0.759725    0.400445
      5          1           0       -0.224527   -1.926373    0.775528
      6          1           0       -1.091801   -1.353571    2.281513
      7          1           0       -2.883796   -0.409916    0.784870
      8          6           0        0.839562    0.722757    0.217597
      9          6           0       -0.060126    1.631199   -0.420681
     10          1           0        1.300652   -0.439746    1.956554
     11          1           0       -1.976553    2.534195   -0.482423
     12          1           0        0.204994    1.920022   -1.433294
     13          1           0       -0.031637    0.779796    2.130228
     14          1           0       -1.553307    1.715907    1.111349
     15          8           0        1.911474    0.412518   -0.529557
     16          6           0        2.672754   -0.718780   -0.159097
     17          1           0        2.034907   -1.607039   -0.122071
     18          1           0        3.424132   -0.841909   -0.938084
     19          1           0        3.171291   -0.568521    0.806058
     20          6           0       -1.673717   -0.790886   -1.010963
     21          8           0       -0.562334   -1.058664   -1.468103
     22          1           0       -2.504908   -0.520009   -1.691167
 ---------------------------------------------------------------------

 SCF Done:  E(RM062X) =  -462.184356629     A.U. after    1 cycles

 The electronic state is 1-A.
 Alpha  occ. eigenvalues --  -19.67756 -19.59382 -10.62767 -10.60016 -10.59427
 Alpha  occ. eigenvalues --  -10.56395 -10.56036 -10.55955 -10.55206 -10.52618
 Alpha  occ. eigenvalues --   -1.20083  -1.11586  -0.92142  -0.86381  -0.82890
 Alpha  occ. eigenvalues --   -0.80988  -0.72094  -0.70300  -0.62710  -0.60623
 Alpha  occ. eigenvalues --   -0.57963  -0.57330  -0.55249  -0.54925  -0.50871
 Alpha  occ. eigenvalues --   -0.49121  -0.47678  -0.46674  -0.46086  -0.45158
 Alpha  occ. eigenvalues --   -0.43229  -0.42120  -0.41187  -0.40115  -0.36229
 Alpha  occ. eigenvalues --   -0.32186  -0.29307  -0.23354
 Alpha virt. eigenvalues --   -0.02171   0.04896   0.10423   0.13342   0.14600
 Alpha virt. eigenvalues --    0.15310   0.17535   0.18361   0.18535   0.19381
 Alpha virt. eigenvalues --    0.20929   0.21218   0.22987   0.23494   0.25282

 Mulliken charges:
               1
     1  C   -0.333894
     2  C   -0.484475
     3  C   -0.370378
     4  C   -0.215713
     5  H    0.203089
     6  H    0.174472
     7  H    0.150454
     8  C    0.464557
     9  C   -0.136750
    10  H    0.180996
    11  H    0.179190
    12  H    0.189194
    13  H    0.196695
    14  H    0.168127
    15  O   -0.493675
    16  C   -0.247615
    17  H    0.186909
    18  H    0.194594
    19  H    0.157268
    20  C    0.228939
    21  O   -0.498685
    22  H    0.106701
 Sum of Mulliken charges =  -0.00000

 Dipole moment (field-independent basis, Debye):
    X=              0.4530    Y=              0.7051    Z=              2.9134  Tot=              3.0316
 Quadrupole moment (field-independent basis, Debye-Ang):
   XX=            -53.1064   YY=            -61.0560   ZZ=            -60.5692
   XY=             -6.1026   XZ=              0.4955   YZ=             -3.5995

  Exact polarizability:     117.926       0.164      90.445       1.685      -4.659      88.325
 Approx polarizability:     154.706       6.603     120.431      -4.710      -7.783     117.568

 ******    1 imaginary frequencies (negative Signs) ******

                      1                      2                      3
                      A                      A                      A
 Frequencies --   -458.3759                46.4967                97.6761
 Red. masses --      9.1774                 3.6971                 4.5309
 Frc consts  --      1.1361                 0.0047                 0.0255
 IR Inten    --    101.0441                 4.4279                12.5269

                      4                      5                      6
                      A                      A                      A
 Frequencies --    119.8038               155.0872               179.7573
 Red. masses --      3.8372                 3.8637                 4.2938
 Frc consts  --      0.0324                 0.0548                 0.0817
 IR Inten    --      2.9264                 3.4286                14.8510

                      7                      8                      9
                      A                      A                      A
 Frequencies --    248.2588               264.3796               293.4440
 Red. masses --      1.2786                 2.6138                 3.1593
 Frc consts  --      0.0464                 0.1076                 0.1603
 IR Inten    --      1.3434                 7.3379                 9.1291

                     10                     11                     12
                      A                      A                      A
 Frequencies --    299.9214               360.0530               403.2851
 Red. masses --      2.3288                 2.9435                 2.5839
 Frc consts  --      0.1234                 0.2248                 0.2476
 IR Inten    --      0.2064                13.7454                 7.9098

                     13                     14                     15
                      A                      A                      A
 Frequencies --    485.2148               500.6503               546.4288
 Red. masses --      3.3488                 3.0162                 2.1652
 Frc consts  --      0.4645                 0.4454                 0.3809
 IR Inten    --      0.1532                29.9352                 8.5726

                     16                     17                     18
                      A                      A                      A
 Frequencies --    555.8727               686.7940               740.4747
 Red. masses --      2.0109                 1.8834                 1.5900
 Frc consts  --      0.3661                 0.5234                 0.5137
 IR Inten    --      0.8219                 9.7318                13.9445

                     19                     20                     21
                      A                      A                      A
 Frequencies --    766.5701               856.3477               871.3559
 Red. masses --      2.0860                 1.9273                 1.5506
 Frc consts  --      0.7222                 0.8327                 0.6937
 IR Inten    --     11.1764                 1.1940                14.9538

                     22                     23                     24
                      A                      A                      A
 Frequencies --    918.5576               935.2269               979.0339
 Red. masses --      1.2397                 1.2471                 1.6353
 Frc consts  --      0.6163                 0.6426                 0.9235
 IR Inten    --     66.4628                31.1895                46.7290

                     25                     26                     27
                      A                      A                      A
 Frequencies --    999.9039              1017.0342              1025.2182
 Red. masses --      1.2417                 1.6537                 1.3182
 Frc consts  --      0.7315                 1.0078                 0.8163
 IR Inten    --      3.6666                 4.5969                30.5659

                     28                     29                     30
                      A                      A                      A
 Frequencies --   1039.8797              1079.8634              1110.9834
 Red. masses --      1.8086                 1.5534                 1.1671
 Frc consts  --      1.1523                 1.0672                 0.8487
 IR Inten    --     25.9486                 7.2646                 9.0976

                     31                     32                     33
                      A                      A                      A
 Frequencies --   1142.2597              1158.3883              1186.9151
 Red. masses --      1.9940                 1.7665                 1.2890
 Frc consts  --      1.5329                 1.3966                 1.0699
 IR Inten    --     32.9507                38.5905                 1.4309

                     34                     35                     36
                      A                      A                      A
 Frequencies --   1233.7766              1268.5632              1299.9630
 Red. masses --      1.4091                 1.4675                 1.4399
 Frc consts  --      1.2637                 1.3914                 1.4336
 IR Inten    --      5.5536                16.1978                56.3377

                     37                     38                     39
                      A                      A                      A
 Frequencies --   1391.6849              1404.9366              1432.3320
 Red. masses --      1.9295                 1.5588                 1.3650
 Frc consts  --      2.2019                 1.8128                 1.6500
 IR Inten    --    195.6032                30.6718                63.2327

                     40                     41                     42
                      A                      A                      A
 Frequencies --   1458.7891              1492.0896              1520.4061
 Red. masses --      1.5076                 1.4228                 1.5075
 Frc consts  --      1.8902                 1.8663                 2.0531
 IR Inten    --     24.4537                33.1812                32.5200

                     43                     44                     45
                      A                      A                      A
 Frequencies --   1528.1795              1531.6828              1538.7446
 Red. masses --      1.1368                 1.1831                 1.3480
 Frc consts  --      1.5642                 1.6353                 1.8805
 IR Inten    --     28.9829                58.8333                31.1806

                     46                     47                     48
                      A                      A                      A
 Frequencies --   1609.9296              1681.8304              1751.0979
 Red. masses --      2.9773                 3.6865                 7.0848
 Frc consts  --      4.5467                 6.1436                12.7996
 IR Inten    --     92.3587                39.1895               142.0987

                     49                     50                     51
                      A                      A                      A
 Frequencies --   2992.7032              3071.3081              3151.2758
 Red. masses --      1.0854                 1.0373                 1.1019
 Frc consts  --      5.7273                 5.7649                 6.4470
 IR Inten    --    164.7557                43.5974                19.3070

                     52                     53                     54
                      A                      A                      A
 Frequencies --   3179.0597              3207.2531              3211.2390
 Red. masses --      1.0573                 1.1018                 1.0586
 Frc consts  --      6.2954                 6.6775                 6.4318
 IR Inten    --     10.6993                16.7458                 2.5352

                     55                     56                     57
                      A                      A                      A
 Frequencies --   3221.0870              3238.5400              3246.9868
 Red. masses --      1.0597                 1.0930                 1.0944
 Frc consts  --      6.4780                 6.7542                 6.7978
 IR Inten    --      2.3111                 1.6316                 4.5334

                     58                     59                     60
                      A                      A                      A
 Frequencies --   3266.2669              3287.6896              3308.4179
 Red. masses --      1.1133                 1.1140                 1.1148
 Frc consts  --      6.9981                 7.0942                 7.1894
 IR Inten    --      3.9159                 2.8899                 4.5704

 - Thermochemistry -
 -------------------
 Temperature   298.150 Kelvin.  Pressure   1.00000 Atm.
 Atom     1 has atomic number  6 and mass  12.00000

 Molecular mass:   140.08373 amu.
 Principal axes and moments of inertia in atomic units:
                           1         2         3
     Eigenvalues --  1026.559701576.739291732.57935
           X            0.99728  -0.07351   0.00530
           Y            0.07365   0.99134  -0.10868
           Z            0.00273   0.10878   0.99406
 This molecule is an asymmetric top.
 Rotational symmetry number  1.
 Warning -- assumption of classical behavior for rotation
           may cause significant error
 Rotational temperatures (Kelvin)      0.08437     0.05493     0.04999
 Rotational constants (GHZ):           1.75805     1.14460     1.04165
    1 imaginary frequencies ignored.
 Zero-point vibrational energy     488058.3 (Joules/Mol)
                                  116.64872 (Kcal/Mol)
 Warning -- explicit consideration of  15 degrees of freedom as
           vibrations may cause significant error
 Vibrational temperatures:     66.90   140.53   172.37   223.14   258.63
          (Kelvin)            357.19   380.38   422.20   431.52   518.04
                              580.24   698.12   720.32   786.19   799.78
                              988.14  1065.38  1102.92  1232.09  1253.69
                             1321.60  1345.58  1408.61  1438.64  1463.29
                             1475.06  1496.15  1553.68  1598.46  1643.46
                             1666.66  1707.71  1775.13  1825.18  1870.36
                             2002.32  2021.39  2060.81  2098.87  2146.78
                             2187.53  2198.71  2203.75  2213.91  2316.33
                             2419.78  2519.44  4305.83  4418.93  4533.98
                             4573.96  4614.52  4620.26  4634.43  4659.54
                             4671.69  4699.43  4730.25  4760.08

 Zero-point correction=                           0.185892 (Hartree/Particle)
 Thermal correction to Energy=                    0.196435
 Thermal correction to Enthalpy=                  0.197379
 Thermal correction to Gibbs Free Energy=         0.149987
 Sum of electronic and zero-point Energies=           -461.998465
 Sum of electronic and thermal Energies=              -461.987922
 Sum of electronic and thermal Enthalpies=            -461.986978
 Sum of electronic and thermal Free Energies=         -462.034370

                     E (Thermal)             CV                S
                      KCal/Mol        Cal/Mol-Kelvin    Cal/Mol-Kelvin
 Total                  123.265             39.066             99.745
 Electronic               0.000              0.000              0.000
 Translational            0.889              2.981             40.723
 Rotational               0.889              2.981             29.418
 Vibrational            121.487             33.104             29.604
 Vibration     1          0.595              1.979              4.961
 Vibration     2          0.603              1.951              3.500
 Vibration     3          0.609              1.933              3.104
 Vibration     4          0.620              1.897              2.609
 Vibration     5          0.629              1.867              2.331
 Vibration     6          0.662              1.766              1.743
 Vibration     7          0.671              1.738              1.633
 Vibration     8          0.688              1.686              1.454
 Vibration     9          0.692              1.674              1.417
 Vibration    10          0.735              1.555              1.122
 Vibration    11          0.769              1.463              0.951
 Vibration    12          0.841              1.283              0.696
 Vibration    13          0.856              1.249              0.656
 Vibration    14          0.902              1.148              0.552
 Vibration    15          0.911              1.127              0.532

 Optimization completed.
    -- Stationary point found.
 Normal termination of Gaussian 16 at Tue Jun 21 10:22:19 2022.
