 Gaussian 16, Revision C.01,
 Gaussian 16:  AS64L-G16RevC.01  3-Jul-2019

 -------------------------------------------------
 # opt=(calcfc,ts,noeigentest) freq 6-31g(d) m062x
 -------------------------------------------------

 -------------------
 Title Card Required
 -------------------
 Symbolic Z-matrix:
 Charge =  0 Multiplicity = 1

 SCF Done:  E(RM062X) =  -462.164447623     A.U. after   17 cycles
 SCF Done:  E(RM062X) =  -462.174478160     A.U. after   15 cycles
 SCF Done:  E(RM062X) =  -462.178890300     A.U. after   15 cycles
 SCF Done:  E(RM062X) =  -462.180090790     A.U. after   14 cycles
 SCF Done:  E(RM062X) =  -462.180165615     A.U. after   13 cycles
 SCF Done:  E(RM062X) =  -462.176722411     A.U. after   15 cycles
 SCF Done:  E(RM062X) =  -462.171986408     A.U. after   18 cycles
 SCF Done:  E(RM062X) =  -462.179223799     A.U. after   16 cycles
 SCF Done:  E(RM062X) =  -462.180157679     A.U. after   13 cycles
 SCF Done:  E(RM062X) =  -462.180273288     A.U. after   13 cycles
 SCF Done:  E(RM062X) =  -462.177988508     A.U. after   16 cycles
 SCF Done:  E(RM062X) =  -462.179905070     A.U. after   14 cycles
 SCF Done:  E(RM062X) =  -462.180169316     A.U. after   14 cycles
 SCF Done:  E(RM062X) =  -462.179732734     A.U. after   16 cycles
 SCF Done:  E(RM062X) =  -462.180171536     A.U. after   15 cycles
 SCF Done:  E(RM062X) =  -462.180280583     A.U. after   14 cycles
 SCF Done:  E(RM062X) =  -462.180320447     A.U. after   13 cycles
 SCF Done:  E(RM062X) =  -462.180321834     A.U. after   10 cycles
 SCF Done:  E(RM062X) =  -462.180322141     A.U. after    8 cycles
 Optimization completed.
    -- Stationary point found.
 Normal termination of Gaussian 16 at Tue Jun 21 10:21:41 2022.

 --------------------------------------------------------------------
 #N Geom=AllCheck Guess=TCheck SCRF=Check GenChk RM062X/6-31G(d) Freq
 --------------------------------------------------------------------

 Structure from the checkpoint file:  "DATS_14_endo_iv.chk"
 -------------------
 Title Card Required
 -------------------
 Charge =  0 Multiplicity = 1

                         Standard orientation:
 ---------------------------------------------------------------------
 Center     Atomic      Atomic             Coordinates (Angstroms)
 Number     Number       Type             X           Y           Z
 ---------------------------------------------------------------------
      1          6           0       -0.521065   -1.631278    0.166662
      2          6           0        1.137703   -0.711963    1.049613
      3          6           0       -0.885432    1.283811    1.077449
      4          6           0       -1.678502   -0.875748    0.317115
      5          1           0       -0.088621   -1.710379   -0.828580
      6          1           0       -0.383034   -2.512066    0.786281
      7          1           0       -2.329519   -1.020965    1.175040
      8          6           0        1.264551    0.458843    0.313113
      9          6           0        0.242193    1.434285    0.320764
     10          1           0        1.905550   -1.476126    1.002448
     11          1           0       -1.730731    1.951348    0.944471
     12          1           0        0.282185    2.182822   -0.465595
     13          1           0        0.632769   -0.650170    2.004923
     14          1           0       -0.889511    0.701837    1.990713
     15          8           0        2.187112    0.637669   -0.667691
     16          6           0        3.232779   -0.304253   -0.768531
     17          1           0        2.856245   -1.290222   -1.066638
     18          1           0        3.904891    0.070818   -1.539889
     19          1           0        3.775026   -0.397585    0.179937
     20          6           0       -2.256239   -0.165255   -0.823654
     21          8           0       -3.386895    0.271296   -0.884430
     22          1           0       -1.552908   -0.051679   -1.681322
 ---------------------------------------------------------------------

 SCF Done:  E(RM062X) =  -462.180322141     A.U. after    1 cycles

 The electronic state is 1-A.
 Alpha  occ. eigenvalues --  -19.68211 -19.60406 -10.62203 -10.61182 -10.61010
 Alpha  occ. eigenvalues --  -10.57002 -10.56962 -10.56586 -10.55260 -10.54507
 Alpha  occ. eigenvalues --   -1.20232  -1.13306  -0.92966  -0.87295  -0.83364
 Alpha  occ. eigenvalues --   -0.81637  -0.71679  -0.71066  -0.63724  -0.62703
 Alpha  occ. eigenvalues --   -0.59610  -0.57103  -0.55884  -0.52717  -0.52146
 Alpha  occ. eigenvalues --   -0.51095  -0.48099  -0.47406  -0.46304  -0.46204
 Alpha  occ. eigenvalues --   -0.44114  -0.43334  -0.43132  -0.40858  -0.37449
 Alpha  occ. eigenvalues --   -0.31128  -0.29849  -0.25362
 Alpha virt. eigenvalues --   -0.00656   0.03250   0.09420   0.11798   0.13955
 Alpha virt. eigenvalues --    0.14513   0.16419   0.17104   0.17714   0.18419
 Alpha virt. eigenvalues --    0.19978   0.20447   0.21151   0.23004   0.23956

 Mulliken charges:
               1
     1  C   -0.361820
     2  C   -0.469661
     3  C   -0.368331
     4  C   -0.206382
     5  H    0.178574
     6  H    0.190607
     7  H    0.170226
     8  C    0.418367
     9  C   -0.157590
    10  H    0.177777
    11  H    0.203967
    12  H    0.183720
    13  H    0.194794
    14  H    0.180180
    15  O   -0.508376
    16  C   -0.242901
    17  H    0.161664
    18  H    0.193632
    19  H    0.165616
    20  C    0.259164
    21  O   -0.462213
    22  H    0.098988
 Sum of Mulliken charges =  -0.00000

 Dipole moment (field-independent basis, Debye):
    X=              4.8700    Y=             -1.8745    Z=              1.5883  Tot=              5.4547
 Quadrupole moment (field-independent basis, Debye-Ang):
   XX=            -70.2355   YY=            -58.5855   ZZ=            -58.8330
   XY=             -2.8017   XZ=             -6.7319   YZ=             -0.1864

  Exact polarizability:     134.668      -3.720      88.923      -1.942      -4.234      75.966
 Approx polarizability:     170.666      -2.957     123.379      -3.134      -7.529      95.205

 ******    1 imaginary frequencies (negative Signs) ******

                      1                      2                      3
                      A                      A                      A
 Frequencies --   -511.7256                55.0623                91.4202
 Red. masses --      8.4169                 4.8106                 3.3236
 Frc consts  --      1.2986                 0.0086                 0.0164
 IR Inten    --     15.1189                 2.6138                 1.3221

                      4                      5                      6
                      A                      A                      A
 Frequencies --    125.6094               146.3916               206.1877
 Red. masses --      5.4563                 3.8722                 3.7480
 Frc consts  --      0.0507                 0.0489                 0.0939
 IR Inten    --      1.0773                13.0770                17.2412

                      7                      8                      9
                      A                      A                      A
 Frequencies --    241.5558               282.7712               284.6886
 Red. masses --      2.3121                 2.1493                 1.3716
 Frc consts  --      0.0795                 0.1013                 0.0655
 IR Inten    --      2.0777                 5.0189                 0.6723

                     10                     11                     12
                      A                      A                      A
 Frequencies --    340.5286               364.1277               384.7887
 Red. masses --      2.3809                 3.2277                 3.3061
 Frc consts  --      0.1627                 0.2521                 0.2884
 IR Inten    --      2.3300                 7.5922                25.1274

                     13                     14                     15
                      A                      A                      A
 Frequencies --    454.1607               502.8950               547.1874
 Red. masses --      3.0569                 3.6782                 2.2056
 Frc consts  --      0.3715                 0.5481                 0.3891
 IR Inten    --      5.9405                 2.1842                 3.8573

                     16                     17                     18
                      A                      A                      A
 Frequencies --    577.6873               593.5969               757.8541
 Red. masses --      3.0252                 2.2053                 1.6139
 Frc consts  --      0.5948                 0.4578                 0.5461
 IR Inten    --      4.2597                17.2838                 5.1325

                     19                     20                     21
                      A                      A                      A
 Frequencies --    779.4477               858.3941               877.8052
 Red. masses --      1.5326                 1.3569                 2.0602
 Frc consts  --      0.5486                 0.5891                 0.9353
 IR Inten    --     10.7179                12.2765                 7.6397

                     22                     23                     24
                      A                      A                      A
 Frequencies --    908.7174               937.7913               963.4804
 Red. masses --      1.2424                 1.2755                 1.1967
 Frc consts  --      0.6045                 0.6609                 0.6545
 IR Inten    --     19.3835                35.1137                23.7771

                     25                     26                     27
                      A                      A                      A
 Frequencies --    991.6810              1012.5222              1030.8046
 Red. masses --      1.2544                 1.3282                 1.5502
 Frc consts  --      0.7268                 0.8023                 0.9705
 IR Inten    --      8.6469                 7.1142                17.3759

                     28                     29                     30
                      A                      A                      A
 Frequencies --   1055.1363              1077.4764              1098.3636
 Red. masses --      1.2607                 1.2708                 1.4918
 Frc consts  --      0.8269                 0.8692                 1.0604
 IR Inten    --      1.1930                 9.0725                 8.1817

                     31                     32                     33
                      A                      A                      A
 Frequencies --   1148.1577              1189.6881              1192.5429
 Red. masses --      3.8542                 1.7209                 1.2793
 Frc consts  --      2.9936                 1.4351                 1.0720
 IR Inten    --     85.8007               112.8876                 0.1944

                     34                     35                     36
                      A                      A                      A
 Frequencies --   1233.5518              1269.2564              1288.2749
 Red. masses --      1.4264                 1.7142                 1.5339
 Frc consts  --      1.2788                 1.6271                 1.4999
 IR Inten    --      5.3226                 6.4632                46.5347

                     37                     38                     39
                      A                      A                      A
 Frequencies --   1370.8379              1389.1511              1433.1166
 Red. masses --      1.8188                 1.9623                 1.3523
 Frc consts  --      2.0138                 2.2310                 1.6364
 IR Inten    --    160.5727                55.7815                55.9762

                     40                     41                     42
                      A                      A                      A
 Frequencies --   1463.4991              1502.2801              1521.8391
 Red. masses --      1.3072                 1.3823                 1.3841
 Frc consts  --      1.6496                 1.8381                 1.8886
 IR Inten    --      3.9764                33.4577                52.7996

                     43                     44                     45
                      A                      A                      A
 Frequencies --   1529.6664              1541.3843              1559.7768
 Red. masses --      1.1600                 1.0794                 1.5433
 Frc consts  --      1.5992                 1.5109                 2.2122
 IR Inten    --      9.6802                23.7512                24.5681

                     46                     47                     48
                      A                      A                      A
 Frequencies --   1621.6224              1655.6585              1840.6741
 Red. masses --      3.0185                 3.2276                 9.7936
 Frc consts  --      4.6767                 5.2128                19.5500
 IR Inten    --     49.1055                91.3675               444.6477

                     49                     50                     51
                      A                      A                      A
 Frequencies --   2922.2121              3063.6217              3128.7464
 Red. masses --      1.0830                 1.0350                 1.1062
 Frc consts  --      5.4489                 5.7234                 6.3798
 IR Inten    --     77.2093                41.6368                34.6670

                     52                     53                     54
                      A                      A                      A
 Frequencies --   3176.3662              3200.8170              3216.5533
 Red. masses --      1.0585                 1.1006                 1.0623
 Frc consts  --      6.2923                 6.6435                 6.4756
 IR Inten    --      6.4056                18.2707                 1.4332

                     55                     56                     57
                      A                      A                      A
 Frequencies --   3221.3626              3224.5538              3230.1582
 Red. masses --      1.0856                 1.0613                 1.0916
 Frc consts  --      6.6374                 6.5018                 6.7106
 IR Inten    --      3.5790                 2.7728                 0.8559

                     58                     59                     60
                      A                      A                      A
 Frequencies --   3262.0115              3300.1222              3301.9139
 Red. masses --      1.1140                 1.1152                 1.1154
 Frc consts  --      6.9838                 7.1562                 7.1647
 IR Inten    --      4.2484                 3.2417                 1.8709

 - Thermochemistry -
 -------------------
 Temperature   298.150 Kelvin.  Pressure   1.00000 Atm.
 Atom     1 has atomic number  6 and mass  12.00000

 Molecular mass:   140.08373 amu.
 Principal axes and moments of inertia in atomic units:
                           1         2         3
     Eigenvalues --   757.396272383.396722533.37011
           X            0.99968  -0.01817  -0.01753
           Y            0.01777   0.99958  -0.02283
           Z            0.01794   0.02251   0.99959
 This molecule is an asymmetric top.
 Rotational symmetry number  1.
 Warning -- assumption of classical behavior for rotation
           may cause significant error
 Rotational temperatures (Kelvin)      0.11436     0.03634     0.03419
 Rotational constants (GHZ):           2.38282     0.75721     0.71239
    1 imaginary frequencies ignored.
 Zero-point vibrational energy     487762.7 (Joules/Mol)
                                  116.57808 (Kcal/Mol)
 Warning -- explicit consideration of  16 degrees of freedom as
           vibrations may cause significant error
 Vibrational temperatures:     79.22   131.53   180.72   210.62   296.66
          (Kelvin)            347.54   406.84   409.60   489.94   523.90
                              553.63   653.44   723.55   787.28   831.16
                              854.05  1090.38  1121.45  1235.04  1262.97
                             1307.44  1349.27  1386.23  1426.81  1456.79
                             1483.10  1518.11  1550.25  1580.30  1651.94
                             1711.70  1715.80  1774.81  1826.18  1853.54
                             1972.33  1998.68  2061.94  2105.65  2161.45
                             2189.59  2200.85  2217.71  2244.17  2333.15
                             2382.12  2648.32  4204.41  4407.87  4501.57
                             4570.08  4605.26  4627.90  4634.82  4639.41
                             4647.48  4693.31  4748.14  4750.72

 Zero-point correction=                           0.185779 (Hartree/Particle)
 Thermal correction to Energy=                    0.196285
 Thermal correction to Enthalpy=                  0.197229
 Thermal correction to Gibbs Free Energy=         0.149827
 Sum of electronic and zero-point Energies=           -461.994543
 Sum of electronic and thermal Energies=              -461.984037
 Sum of electronic and thermal Enthalpies=            -461.983093
 Sum of electronic and thermal Free Energies=         -462.030495

                     E (Thermal)             CV                S
                      KCal/Mol        Cal/Mol-Kelvin    Cal/Mol-Kelvin
 Total                  123.171             39.126             99.766
 Electronic               0.000              0.000              0.000
 Translational            0.889              2.981             40.723
 Rotational               0.889              2.981             29.904
 Vibrational            121.393             33.164             29.139
 Vibration     1          0.596              1.976              4.627
 Vibration     2          0.602              1.955              3.629
 Vibration     3          0.611              1.927              3.012
 Vibration     4          0.617              1.907              2.719
 Vibration     5          0.641              1.831              2.077
 Vibration     6          0.658              1.777              1.791
 Vibration     7          0.682              1.706              1.517
 Vibration     8          0.683              1.702              1.505
 Vibration     9          0.720              1.594              1.210
 Vibration    10          0.738              1.546              1.104
 Vibration    11          0.754              1.503              1.020
 Vibration    12          0.813              1.352              0.783
 Vibration    13          0.858              1.244              0.651
 Vibration    14          0.902              1.146              0.550
 Vibration    15          0.934              1.080              0.490
 Vibration    16          0.951              1.045              0.461

                           ! Non-Optimized Parameters !
 Normal termination of Gaussian 16 at Tue Jun 21 10:23:11 2022.
