 Gaussian 16, Revision C.01,
 Gaussian 16:  AS64L-G16RevC.01  3-Jul-2019

 -------------------------------------------------
 # opt=(calcfc,ts,noeigentest) freq 6-31g(d) m062x
 -------------------------------------------------

 -------------------
 Title Card Required
 -------------------
 Symbolic Z-matrix:
 Charge =  0 Multiplicity = 1

 SCF Done:  E(RM062X) =  -462.160895739     A.U. after   16 cycles
 SCF Done:  E(RM062X) =  -462.173723909     A.U. after   16 cycles
 SCF Done:  E(RM062X) =  -462.174835941     A.U. after   15 cycles
 SCF Done:  E(RM062X) =  -462.175351608     A.U. after   13 cycles
 SCF Done:  E(RM062X) =  -462.175561353     A.U. after   14 cycles
 SCF Done:  E(RM062X) =  -462.175615308     A.U. after   13 cycles
 SCF Done:  E(RM062X) =  -462.175657513     A.U. after   13 cycles
 SCF Done:  E(RM062X) =  -462.175672160     A.U. after   13 cycles
 SCF Done:  E(RM062X) =  -462.175679713     A.U. after   13 cycles
 SCF Done:  E(RM062X) =  -462.175694742     A.U. after   12 cycles
 SCF Done:  E(RM062X) =  -462.174071488     A.U. after   15 cycles
 SCF Done:  E(RM062X) =  -462.175472598     A.U. after   14 cycles
 SCF Done:  E(RM062X) =  -462.174379036     A.U. after   16 cycles
 SCF Done:  E(RM062X) =  -462.175579416     A.U. after   15 cycles
 SCF Done:  E(RM062X) =  -462.175684239     A.U. after   14 cycles
 SCF Done:  E(RM062X) =  -462.175696124     A.U. after   12 cycles
 SCF Done:  E(RM062X) =  -462.175696864     A.U. after    9 cycles
 SCF Done:  E(RM062X) =  -462.175696746     A.U. after    8 cycles
 SCF Done:  E(RM062X) =  -462.175696957     A.U. after    8 cycles
 Optimization completed.
    -- Stationary point found.
 Normal termination of Gaussian 16 at Tue Jun 21 10:41:14 2022.

 --------------------------------------------------------------------
 #N Geom=AllCheck Guess=TCheck SCRF=Check GenChk RM062X/6-31G(d) Freq
 --------------------------------------------------------------------

 Structure from the checkpoint file:  "/tmp/Gau-3336037.chk"
 -------------------
 Title Card Required
 -------------------
 Charge =  0 Multiplicity = 1

                         Standard orientation:
 ---------------------------------------------------------------------
 Center     Atomic      Atomic             Coordinates (Angstroms)
 Number     Number       Type             X           Y           Z
 ---------------------------------------------------------------------
      1          6           0        1.592419    1.385897   -0.726054
      2          6           0       -0.257361    2.307206    0.024929
      3          6           0        0.023828   -0.104371    1.501304
      4          6           0        1.873774    0.269250    0.034707
      5          1           0        1.194235    1.255070   -1.727926
      6          1           0        2.139471    2.308051   -0.559591
      7          1           0        2.556282    0.320037    0.878460
      8          6           0       -1.172437    1.285835   -0.092804
      9          6           0       -1.022524    0.076516    0.629181
     10          1           0       -0.359972    3.184215   -0.607277
     11          1           0        0.194585   -1.088632    1.924019
     12          1           0        0.279207    2.476365    0.951162
     13          1           0        0.467603    0.738436    2.011039
     14          6           0        1.610821   -1.075616   -0.504492
     15          8           0        2.130197   -2.097947   -0.118888
     16          1           0        0.873249   -1.084587   -1.340973
     17          8           0       -1.763097   -1.038143    0.356285
     18          6           0       -2.622668   -1.018114   -0.760354
     19          1           0       -3.067595   -2.011662   -0.813382
     20          1           0       -3.420111   -0.273898   -0.645240
     21          1           0       -2.073540   -0.817960   -1.689453
     22          1           0       -1.875321    1.323667   -0.918519
 ---------------------------------------------------------------------

 SCF Done:  E(RM062X) =  -462.175696957     A.U. after    1 cycles

 The electronic state is 1-A.
 Alpha  occ. eigenvalues --  -19.66872 -19.61539 -10.62098 -10.61245 -10.60205
 Alpha  occ. eigenvalues --  -10.57209 -10.56301 -10.55971 -10.55693 -10.55499
 Alpha  occ. eigenvalues --   -1.18891  -1.14467  -0.92574  -0.87476  -0.84665
 Alpha  occ. eigenvalues --   -0.78005  -0.73163  -0.71173  -0.64167  -0.61828
 Alpha  occ. eigenvalues --   -0.59699  -0.56159  -0.54957  -0.53038  -0.52827
 Alpha  occ. eigenvalues --   -0.49788  -0.48295  -0.47814  -0.46618  -0.45973
 Alpha  occ. eigenvalues --   -0.45260  -0.43349  -0.42468  -0.39746  -0.37828
 Alpha  occ. eigenvalues --   -0.30931  -0.28230  -0.27180
 Alpha virt. eigenvalues --   -0.01220   0.03136   0.09153   0.12577   0.13071
 Alpha virt. eigenvalues --    0.14499   0.16625   0.16995   0.17486   0.19402
 Alpha virt. eigenvalues --    0.20216   0.20469   0.22013   0.22228   0.24905

 Mulliken charges:
               1
     1  C   -0.388948
     2  C   -0.380044
     3  C   -0.437033
     4  C   -0.179905
     5  H    0.177523
     6  H    0.187355
     7  H    0.178904
     8  C   -0.157710
     9  C    0.401550
    10  H    0.178943
    11  H    0.206551
    12  H    0.187564
    13  H    0.180569
    14  C    0.271232
    15  O   -0.443219
    16  H    0.098677
    17  O   -0.515349
    18  C   -0.240966
    19  H    0.193146
    20  H    0.161227
    21  H    0.155919
    22  H    0.164015
 Sum of Mulliken charges =  -0.00000

 Dipole moment (field-independent basis, Debye):
    X=             -2.1797    Y=              3.8290    Z=             -1.2147  Tot=              4.5703
 Quadrupole moment (field-independent basis, Debye-Ang):
   XX=            -61.8436   YY=            -64.0769   ZZ=            -57.4822
   XY=              8.6936   XZ=              5.2320   YZ=              0.6168

  Exact polarizability:     107.413      -1.276     106.237       6.070      -7.828      76.831
 Approx polarizability:     136.632      -6.543     140.863       7.202     -20.070     102.454

 ******    1 imaginary frequencies (negative Signs) ******

                      1                      2                      3
                      A                      A                      A
 Frequencies --   -463.6706                49.9159                70.8467
 Red. masses --      8.5390                 4.1889                 3.2387
 Frc consts  --      1.0816                 0.0061                 0.0096
 IR Inten    --      6.9644                 3.6033                 1.8051

                      4                      5                      6
                      A                      A                      A
 Frequencies --    105.8367               158.6737               200.4113
 Red. masses --      5.8775                 5.1493                 3.0287
 Frc consts  --      0.0388                 0.0764                 0.0717
 IR Inten    --      0.6160                 4.8122                 6.3984

                      7                      8                      9
                      A                      A                      A
 Frequencies --    253.7224               277.6888               295.7007
 Red. masses --      2.8138                 1.2439                 2.7926
 Frc consts  --      0.1067                 0.0565                 0.1439
 IR Inten    --      2.1708                 0.1421                 1.1839

                     10                     11                     12
                      A                      A                      A
 Frequencies --    343.9189               365.8416               411.4686
 Red. masses --      2.4382                 2.5341                 3.6059
 Frc consts  --      0.1699                 0.1998                 0.3597
 IR Inten    --      3.9590                 6.2396                 2.0506

                     13                     14                     15
                      A                      A                      A
 Frequencies --    416.4338               482.8932               572.8954
 Red. masses --      2.6256                 2.5322                 3.4208
 Frc consts  --      0.2683                 0.3479                 0.6615
 IR Inten    --      0.1444                 1.1810                 6.8411

                     16                     17                     18
                      A                      A                      A
 Frequencies --    576.1706               597.9769               739.4659
 Red. masses --      3.3623                 2.5018                 1.1496
 Frc consts  --      0.6576                 0.5271                 0.3704
 IR Inten    --     10.4760                 1.3208                 2.7052

                     19                     20                     21
                      A                      A                      A
 Frequencies --    766.6429               819.3025               851.2236
 Red. masses --      1.4651                 1.3514                 2.5390
 Frc consts  --      0.5073                 0.5345                 1.0839
 IR Inten    --     10.7225                11.4567                25.9370

                     22                     23                     24
                      A                      A                      A
 Frequencies --    899.1701               919.4987               934.9281
 Red. masses --      1.2461                 1.3587                 1.1758
 Frc consts  --      0.5936                 0.6768                 0.6055
 IR Inten    --     10.8476                 8.8435                 5.7737

                     25                     26                     27
                      A                      A                      A
 Frequencies --    965.8800               992.9734              1020.0774
 Red. masses --      1.3930                 1.2223                 1.5260
 Frc consts  --      0.7657                 0.7101                 0.9356
 IR Inten    --      8.6153                 9.2987                 6.3644

                     28                     29                     30
                      A                      A                      A
 Frequencies --   1037.7869              1056.7168              1106.8892
 Red. masses --      1.3278                 1.2375                 1.4999
 Frc consts  --      0.8425                 0.8141                 1.0827
 IR Inten    --      5.3618                21.4640                 0.1370

                     31                     32                     33
                      A                      A                      A
 Frequencies --   1180.2762              1182.1947              1192.2388
 Red. masses --      3.5379                 1.9489                 1.3221
 Frc consts  --      2.9038                 1.6048                 1.1073
 IR Inten    --     76.1215                63.6756                 5.0536

                     34                     35                     36
                      A                      A                      A
 Frequencies --   1224.7893              1272.6441              1312.1461
 Red. masses --      1.3885                 1.7557                 1.4635
 Frc consts  --      1.2272                 1.6754                 1.4846
 IR Inten    --      0.1707                 2.3642                55.4861

                     37                     38                     39
                      A                      A                      A
 Frequencies --   1351.3950              1385.9651              1429.3633
 Red. masses --      2.7062                 1.4094                 1.3093
 Frc consts  --      2.9119                 1.5951                 1.5761
 IR Inten    --    128.3794                 6.2782                18.7154

                     40                     41                     42
                      A                      A                      A
 Frequencies --   1459.7354              1500.9640              1522.4354
 Red. masses --      1.3034                 1.2643                 1.6393
 Frc consts  --      1.6363                 1.6782                 2.2387
 IR Inten    --      9.7412                33.2183                51.6880

                     43                     44                     45
                      A                      A                      A
 Frequencies --   1529.5378              1542.4590              1565.0249
 Red. masses --      1.0523                 1.0494                 1.6649
 Frc consts  --      1.4505                 1.4710                 2.4025
 IR Inten    --      4.9749                17.8690                 5.6291

                     46                     47                     48
                      A                      A                      A
 Frequencies --   1629.8259              1656.5117              1859.9900
 Red. masses --      3.3885                 3.4243                10.1507
 Frc consts  --      5.3033                 5.5362                20.6904
 IR Inten    --      9.8564                73.4288               346.1140

                     49                     50                     51
                      A                      A                      A
 Frequencies --   2919.6546              3055.6250              3119.9782
 Red. masses --      1.0831                 1.0360                 1.1058
 Frc consts  --      5.4397                 5.6991                 6.3422
 IR Inten    --     79.0427                39.1952                41.0572

                     52                     53                     54
                      A                      A                      A
 Frequencies --   3194.2856              3195.8855              3204.6372
 Red. masses --      1.0568                 1.0993                 1.0588
 Frc consts  --      6.3530                 6.6154                 6.4062
 IR Inten    --      2.9322                20.6636                 4.0641

                     55                     56                     57
                      A                      A                      A
 Frequencies --   3226.8288              3229.2604              3242.0119
 Red. masses --      1.0830                 1.0684                 1.0901
 Frc consts  --      6.6439                 6.5643                 6.7507
 IR Inten    --      1.7835                 0.4755                 2.7376

                     58                     59                     60
                      A                      A                      A
 Frequencies --   3279.1654              3286.4022              3327.2152
 Red. masses --      1.1164                 1.1149                 1.1160
 Frc consts  --      7.0728                 7.0943                 7.2793
 IR Inten    --      2.4040                 7.3650                 0.4727

 - Thermochemistry -
 -------------------
 Temperature   298.150 Kelvin.  Pressure   1.00000 Atm.
 Atom     1 has atomic number  6 and mass  12.00000

 Molecular mass:   140.08373 amu.
 Principal axes and moments of inertia in atomic units:
                           1         2         3
     Eigenvalues --  1154.689271616.771212271.66668
           X            0.99515   0.09349   0.03062
           Y           -0.09359   0.99561   0.00175
           Z           -0.03032  -0.00460   0.99953
 This molecule is an asymmetric top.
 Rotational symmetry number  1.
 Warning -- assumption of classical behavior for rotation
           may cause significant error
 Rotational temperatures (Kelvin)      0.07501     0.05357     0.03813
 Rotational constants (GHZ):           1.56297     1.11626     0.79446
    1 imaginary frequencies ignored.
 Zero-point vibrational energy     486697.1 (Joules/Mol)
                                  116.32339 (Kcal/Mol)
 Warning -- explicit consideration of  16 degrees of freedom as
           vibrations may cause significant error
 Vibrational temperatures:     71.82   101.93   152.28   228.30   288.35
          (Kelvin)            365.05   399.53   425.45   494.82   526.36
                              592.01   599.16   694.78   824.27   828.98
                              860.36  1063.93  1103.03  1178.79  1224.72
                             1293.71  1322.95  1345.15  1389.69  1428.67
                             1467.66  1493.14  1520.38  1592.57  1698.15
                             1700.91  1715.37  1762.20  1831.05  1887.89
                             1944.36  1994.09  2056.53  2100.23  2159.55
                             2190.44  2200.66  2219.25  2251.72  2344.96
                             2383.35  2676.11  4200.73  4396.36  4488.95
                             4595.86  4598.17  4610.76  4642.69  4646.19
                             4664.53  4717.99  4728.40  4787.12

 Zero-point correction=                           0.185373 (Hartree/Particle)
 Thermal correction to Energy=                    0.195976
 Thermal correction to Enthalpy=                  0.196921
 Thermal correction to Gibbs Free Energy=         0.149114
 Sum of electronic and zero-point Energies=           -461.990324
 Sum of electronic and thermal Energies=              -461.979721
 Sum of electronic and thermal Enthalpies=            -461.978776
 Sum of electronic and thermal Free Energies=         -462.026583

                     E (Thermal)             CV                S
                      KCal/Mol        Cal/Mol-Kelvin    Cal/Mol-Kelvin
 Total                  122.977             39.416            100.618
 Electronic               0.000              0.000              0.000
 Translational            0.889              2.981             40.723
 Rotational               0.889              2.981             29.829
 Vibrational            121.200             33.454             30.066
 Vibration     1          0.595              1.978              4.821
 Vibration     2          0.598              1.968              4.130
 Vibration     3          0.605              1.945              3.344
 Vibration     4          0.621              1.893              2.566
 Vibration     5          0.638              1.839              2.129
 Vibration     6          0.665              1.757              1.705
 Vibration     7          0.679              1.715              1.548
 Vibration     8          0.690              1.682              1.441
 Vibration     9          0.723              1.588              1.194
 Vibration    10          0.739              1.543              1.097
 Vibration    11          0.775              1.445              0.921
 Vibration    12          0.780              1.435              0.904
 Vibration    13          0.839              1.288              0.702
 Vibration    14          0.929              1.090              0.499
 Vibration    15          0.933              1.083              0.493
 Vibration    16          0.956              1.036              0.453

                           ! Non-Optimized Parameters !
 Normal termination of Gaussian 16 at Tue Jun 21 10:42:47 2022.
