 Gaussian 16, Revision C.01,
 Gaussian 16:  AS64L-G16RevC.01  3-Jul-2019

 -------------------------------------------------
 # opt=(calcfc,ts,noeigentest) freq 6-31g(d) m062x
 -------------------------------------------------

 -------------------
 Title Card Required
 -------------------
 Symbolic Z-matrix:
 Charge =  0 Multiplicity = 1

 SCF Done:  E(RM062X) =  -462.172375308     A.U. after   16 cycles
 SCF Done:  E(RM062X) =  -462.176437670     A.U. after   16 cycles
 SCF Done:  E(RM062X) =  -462.176846287     A.U. after   15 cycles
 SCF Done:  E(RM062X) =  -462.176577507     A.U. after   14 cycles
 SCF Done:  E(RM062X) =  -462.175339186     A.U. after   15 cycles
 SCF Done:  E(RM062X) =  -462.176848741     A.U. after   15 cycles
 SCF Done:  E(RM062X) =  -462.177283939     A.U. after   16 cycles
 SCF Done:  E(RM062X) =  -462.177309007     A.U. after   14 cycles
 SCF Done:  E(RM062X) =  -462.177329621     A.U. after   11 cycles
 SCF Done:  E(RM062X) =  -462.177329718     A.U. after   10 cycles
 SCF Done:  E(RM062X) =  -462.177330355     A.U. after    9 cycles
 SCF Done:  E(RM062X) =  -462.175234620     A.U. after   14 cycles
 SCF Done:  E(RM062X) =  -462.177079078     A.U. after   15 cycles
 SCF Done:  E(RM062X) =  -462.177247830     A.U. after   15 cycles
 SCF Done:  E(RM062X) =  -462.177324920     A.U. after   14 cycles
 SCF Done:  E(RM062X) =  -462.177330102     A.U. after   12 cycles
 SCF Done:  E(RM062X) =  -462.177330405     A.U. after    9 cycles
 Optimization completed.
    -- Stationary point found.
 Normal termination of Gaussian 16 at Tue Jun 21 10:21:49 2022.

 --------------------------------------------------------------------
 #N Geom=AllCheck Guess=TCheck SCRF=Check GenChk RM062X/6-31G(d) Freq
 --------------------------------------------------------------------

 Structure from the checkpoint file:  "/tmp/Gau-2309021.chk"
 -------------------
 Title Card Required
 -------------------
 Charge =  0 Multiplicity = 1

                         Standard orientation:
 ---------------------------------------------------------------------
 Center     Atomic      Atomic             Coordinates (Angstroms)
 Number     Number       Type             X           Y           Z
 ---------------------------------------------------------------------
      1          6           0       -0.812507   -1.490551   -0.535187
      2          6           0        0.688053   -1.221747    0.982020
      3          6           0       -0.500346    1.354575    0.724203
      4          6           0       -1.554528   -0.340578   -0.742816
      5          1           0       -0.087138   -1.810566   -1.274961
      6          1           0       -1.259606   -2.296474    0.043839
      7          1           0       -1.340707    0.336180   -1.562318
      8          6           0        1.399987   -0.140900    0.499560
      9          6           0        0.792672    1.136092    0.351506
     10          1           0        1.189717   -2.183685    1.012368
     11          1           0       -1.009316    2.276276    0.461563
     12          1           0        1.285604    1.885185   -0.259064
     13          1           0       -0.083525   -1.062257    1.722528
     14          1           0       -0.990233    0.754694    1.481016
     15          8           0        2.610277   -0.437065   -0.046583
     16          6           0        3.313052    0.575740   -0.734758
     17          1           0        3.509870    1.437928   -0.087244
     18          1           0        4.260212    0.128715   -1.035919
     19          1           0        2.770711    0.908983   -1.627584
     20          6           0       -2.832378   -0.163540   -0.058167
     21          8           0       -3.631955    0.725048   -0.268020
     22          1           0       -3.036193   -0.933396    0.724431
 ---------------------------------------------------------------------

 SCF Done:  E(RM062X) =  -462.177330405     A.U. after    1 cycles

 The electronic state is 1-A.
 Alpha  occ. eigenvalues --  -19.68002 -19.61147 -10.62184 -10.61582 -10.60901
 Alpha  occ. eigenvalues --  -10.57065 -10.56794 -10.55953 -10.55756 -10.54271
 Alpha  occ. eigenvalues --   -1.19953  -1.13907  -0.92735  -0.87250  -0.85137
 Alpha  occ. eigenvalues --   -0.78701  -0.72679  -0.71541  -0.63676  -0.62409
 Alpha  occ. eigenvalues --   -0.59975  -0.56838  -0.55686  -0.52785  -0.52442
 Alpha  occ. eigenvalues --   -0.49909  -0.48661  -0.47794  -0.46149  -0.45822
 Alpha  occ. eigenvalues --   -0.45205  -0.43416  -0.43294  -0.40304  -0.37380
 Alpha  occ. eigenvalues --   -0.30961  -0.30453  -0.25301
 Alpha virt. eigenvalues --   -0.01372   0.02525   0.10020   0.12448   0.13215
 Alpha virt. eigenvalues --    0.14932   0.16436   0.17222   0.18561   0.19073
 Alpha virt. eigenvalues --    0.20153   0.20553   0.20984   0.21954   0.24472

 Mulliken charges:
               1
     1  C   -0.376255
     2  C   -0.447185
     3  C   -0.366980
     4  C   -0.182491
     5  H    0.193294
     6  H    0.183035
     7  H    0.172972
     8  C    0.419314
     9  C   -0.162415
    10  H    0.188733
    11  H    0.198713
    12  H    0.167434
    13  H    0.185559
    14  H    0.181867
    15  O   -0.513166
    16  C   -0.245987
    17  H    0.168181
    18  H    0.192897
    19  H    0.165046
    20  C    0.236200
    21  O   -0.455133
    22  H    0.096369
 Sum of Mulliken charges =  -0.00000

 Dipole moment (field-independent basis, Debye):
    X=              4.2287    Y=             -0.5177    Z=              0.0143  Tot=              4.2603
 Quadrupole moment (field-independent basis, Debye-Ang):
   XX=            -72.3211   YY=            -57.4151   ZZ=            -59.4486
   XY=              8.5796   XZ=             -6.4726   YZ=             -1.6793

  Exact polarizability:     141.737      -2.316      96.517      -0.094      -4.119      67.897
 Approx polarizability:     172.404     -12.363     133.369       6.714      -5.546      87.054

 ******    1 imaginary frequencies (negative Signs) ******

                      1                      2                      3
                      A                      A                      A
 Frequencies --   -461.8147                51.9920                74.4627
 Red. masses --      8.6535                 3.8870                 3.4891
 Frc consts  --      1.0874                 0.0062                 0.0114
 IR Inten    --     17.1178                 1.5032                 3.2119

                      4                      5                      6
                      A                      A                      A
 Frequencies --    100.1206               133.6284               214.7225
 Red. masses --      6.1595                 5.3372                 3.4102
 Frc consts  --      0.0364                 0.0562                 0.0926
 IR Inten    --     11.2644                 7.8844                15.5599

                      7                      8                      9
                      A                      A                      A
 Frequencies --    222.0289               259.0674               292.7483
 Red. masses --      2.5858                 1.3229                 2.8327
 Frc consts  --      0.0751                 0.0523                 0.1430
 IR Inten    --      2.4194                 2.9610                 0.7751

                     10                     11                     12
                      A                      A                      A
 Frequencies --    330.9593               355.0064               399.7897
 Red. masses --      2.0108                 2.3593                 3.0517
 Frc consts  --      0.1298                 0.1752                 0.2874
 IR Inten    --      3.7413                 4.8265                12.7093

                     13                     14                     15
                      A                      A                      A
 Frequencies --    437.6117               483.9666               557.9158
 Red. masses --      3.2842                 2.4188                 2.5621
 Frc consts  --      0.3706                 0.3338                 0.4699
 IR Inten    --     25.3674                 1.2695                 9.9905

                     16                     17                     18
                      A                      A                      A
 Frequencies --    578.1319               588.5084               739.8472
 Red. masses --      2.6824                 3.3274                 1.8045
 Frc consts  --      0.5282                 0.6790                 0.5819
 IR Inten    --     17.4780                10.1928                 6.4733

                     19                     20                     21
                      A                      A                      A
 Frequencies --    786.8886               846.7267               852.0890
 Red. masses --      1.3856                 1.6941                 1.5270
 Frc consts  --      0.5055                 0.7156                 0.6532
 IR Inten    --      3.2583                 7.0751                 7.3044

                     22                     23                     24
                      A                      A                      A
 Frequencies --    887.1523               920.7883               959.6832
 Red. masses --      1.1926                 1.3355                 1.2166
 Frc consts  --      0.5530                 0.6671                 0.6602
 IR Inten    --     31.7620                 8.3130                46.1377

                     25                     26                     27
                      A                      A                      A
 Frequencies --    978.5032               997.4137              1020.7726
 Red. masses --      1.3205                 1.2354                 1.5366
 Frc consts  --      0.7449                 0.7241                 0.9433
 IR Inten    --      7.7876                 5.1906                36.4204

                     28                     29                     30
                      A                      A                      A
 Frequencies --   1046.4100              1059.3052              1095.9984
 Red. masses --      1.3020                 1.2619                 1.5828
 Frc consts  --      0.8400                 0.8343                 1.1202
 IR Inten    --     25.0700                17.8024                 6.8985

                     31                     32                     33
                      A                      A                      A
 Frequencies --   1179.4004              1190.5241              1192.3087
 Red. masses --      3.8207                 1.3878                 1.6060
 Frc consts  --      3.1313                 1.1589                 1.3452
 IR Inten    --    111.6732                66.5352                68.5027

                     34                     35                     36
                      A                      A                      A
 Frequencies --   1225.4840              1271.1879              1313.2301
 Red. masses --      1.3789                 1.8230                 1.5143
 Frc consts  --      1.2201                 1.7357                 1.5386
 IR Inten    --      0.1564                 6.5202               103.7908

                     37                     38                     39
                      A                      A                      A
 Frequencies --   1367.0110              1389.7100              1429.6218
 Red. masses --      2.1297                 1.5105                 1.3238
 Frc consts  --      2.3448                 1.7188                 1.5940
 IR Inten    --    188.8297                 7.0129                26.9611

                     40                     41                     42
                      A                      A                      A
 Frequencies --   1470.8945              1497.2728              1521.0650
 Red. masses --      1.3169                 1.3596                 1.5651
 Frc consts  --      1.6787                 1.7958                 2.1334
 IR Inten    --      7.4184                71.2084                45.2847

                     43                     44                     45
                      A                      A                      A
 Frequencies --   1531.5948              1540.6559              1564.5271
 Red. masses --      1.0461                 1.0486                 1.6673
 Frc consts  --      1.4458                 1.4665                 2.4045
 IR Inten    --      7.1770                29.0183                49.1428

                     46                     47                     48
                      A                      A                      A
 Frequencies --   1626.4811              1665.3708              1841.3965
 Red. masses --      3.2713                 3.4409                 9.9081
 Frc consts  --      5.0989                 5.6227                19.7940
 IR Inten    --      7.8473               135.4763               412.3857

                     49                     50                     51
                      A                      A                      A
 Frequencies --   2905.4015              3066.0745              3132.9446
 Red. masses --      1.0820                 1.0349                 1.1066
 Frc consts  --      5.3811                 5.7320                 6.3992
 IR Inten    --    130.2938                45.3476                34.5117

                     52                     53                     54
                      A                      A                      A
 Frequencies --   3179.1965              3198.8753              3217.2373
 Red. masses --      1.0602                 1.1006                 1.0599
 Frc consts  --      6.3134                 6.6356                 6.4637
 IR Inten    --      3.9706                20.3384                 1.7227

                     55                     56                     57
                      A                      A                      A
 Frequencies --   3219.9689              3244.2290              3250.3395
 Red. masses --      1.0589                 1.0903                 1.0927
 Frc consts  --      6.4688                 6.7611                 6.8016
 IR Inten    --      1.9312                 4.9224                 1.0674

                     58                     59                     60
                      A                      A                      A
 Frequencies --   3272.9934              3303.6372              3311.7580
 Red. masses --      1.1121                 1.1162                 1.1151
 Frc consts  --      7.0193                 7.1779                 7.2055
 IR Inten    --      3.5998                 3.2885                 1.3005

 - Thermochemistry -
 -------------------
 Temperature   298.150 Kelvin.  Pressure   1.00000 Atm.
 Atom     1 has atomic number  6 and mass  12.00000

 Molecular mass:   140.08373 amu.
 Principal axes and moments of inertia in atomic units:
                           1         2         3
     Eigenvalues --   649.862342627.414462886.67612
           X            0.99969   0.01774  -0.01735
           Y           -0.01850   0.99883  -0.04464
           Z            0.01653   0.04494   0.99885
 This molecule is an asymmetric top.
 Rotational symmetry number  1.
 Warning -- assumption of classical behavior for rotation
           may cause significant error
 Rotational temperatures (Kelvin)      0.13328     0.03297     0.03000
 Rotational constants (GHZ):           2.77711     0.68689     0.62520
    1 imaginary frequencies ignored.
 Zero-point vibrational energy     486836.0 (Joules/Mol)
                                  116.35661 (Kcal/Mol)
 Warning -- explicit consideration of  16 degrees of freedom as
           vibrations may cause significant error
 Vibrational temperatures:     74.80   107.14   144.05   192.26   308.94
          (Kelvin)            319.45   372.74   421.20   476.18   510.78
                              575.21   629.63   696.32   802.72   831.80
                              846.73  1064.48  1132.16  1218.25  1225.97
                             1276.41  1324.81  1380.77  1407.85  1435.06
                             1468.66  1505.55  1524.10  1576.90  1696.89
                             1712.90  1715.47  1763.20  1828.96  1889.45
                             1966.82  1999.48  2056.91  2116.29  2154.24
                             2188.47  2203.62  2216.66  2251.01  2340.14
                             2396.10  2649.36  4180.22  4411.40  4507.61
                             4574.15  4602.47  4628.89  4632.82  4667.72
                             4676.51  4709.11  4753.20  4764.88

 Zero-point correction=                           0.185426 (Hartree/Particle)
 Thermal correction to Energy=                    0.196136
 Thermal correction to Enthalpy=                  0.197080
 Thermal correction to Gibbs Free Energy=         0.148931
 Sum of electronic and zero-point Energies=           -461.991904
 Sum of electronic and thermal Energies=              -461.981195
 Sum of electronic and thermal Enthalpies=            -461.980250
 Sum of electronic and thermal Free Energies=         -462.028399

                     E (Thermal)             CV                S
                      KCal/Mol        Cal/Mol-Kelvin    Cal/Mol-Kelvin
 Total                  123.077             39.455            101.338
 Electronic               0.000              0.000              0.000
 Translational            0.889              2.981             40.723
 Rotational               0.889              2.981             29.978
 Vibrational            121.300             33.493             30.636
 Vibration     1          0.596              1.977              4.740
 Vibration     2          0.599              1.966              4.032
 Vibration     3          0.604              1.949              3.452
 Vibration     4          0.613              1.920              2.893
 Vibration     5          0.645              1.819              2.003
 Vibration     6          0.648              1.808              1.942
 Vibration     7          0.668              1.747              1.668
 Vibration     8          0.688              1.687              1.458
 Vibration     9          0.713              1.614              1.255
 Vibration    10          0.731              1.565              1.144
 Vibration    11          0.766              1.471              0.963
 Vibration    12          0.798              1.388              0.834
 Vibration    13          0.840              1.286              0.699
 Vibration    14          0.913              1.122              0.528
 Vibration    15          0.935              1.079              0.489
 Vibration    16          0.946              1.056              0.470

 Optimization completed.
    -- Stationary point found.
 Normal termination of Gaussian 16 at Tue Jun 21 10:23:17 2022.
