 Gaussian 16, Revision C.01,
 Gaussian 16:  AS64L-G16RevC.01  3-Jul-2019

 -------------------------------------------------
 # opt=(calcfc,ts,noeigentest) freq 6-31g(d) m062x
 -------------------------------------------------

 -------------------
 Title Card Required
 -------------------
 Symbolic Z-matrix:
 Charge =  0 Multiplicity = 1

 SCF Done:  E(RM062X) =  -462.156620853     A.U. after   17 cycles
 SCF Done:  E(RM062X) =  -462.178039872     A.U. after   16 cycles
 SCF Done:  E(RM062X) =  -462.173722172     A.U. after   16 cycles
 SCF Done:  E(RM062X) =  -462.180007520     A.U. after   16 cycles
 SCF Done:  E(RM062X) =  -462.179671706     A.U. after   15 cycles
 SCF Done:  E(RM062X) =  -462.182264947     A.U. after   17 cycles
 SCF Done:  E(RM062X) =  -462.182023318     A.U. after   14 cycles
 SCF Done:  E(RM062X) =  -462.181976387     A.U. after   16 cycles
 SCF Done:  E(RM062X) =  -462.182882757     A.U. after   15 cycles
 SCF Done:  E(RM062X) =  -462.181593315     A.U. after   15 cycles
 SCF Done:  E(RM062X) =  -462.182871392     A.U. after   14 cycles
 SCF Done:  E(RM062X) =  -462.183322174     A.U. after   14 cycles
 SCF Done:  E(RM062X) =  -462.183308924     A.U. after   13 cycles
 SCF Done:  E(RM062X) =  -462.183353743     A.U. after   13 cycles
 SCF Done:  E(RM062X) =  -462.183356403     A.U. after   10 cycles
 SCF Done:  E(RM062X) =  -462.183357820     A.U. after    9 cycles
 SCF Done:  E(RM062X) =  -462.183358544     A.U. after    9 cycles
 SCF Done:  E(RM062X) =  -462.183359099     A.U. after    9 cycles
 SCF Done:  E(RM062X) =  -462.183359457     A.U. after    8 cycles
 Optimization completed.
    -- Stationary point found.
 Normal termination of Gaussian 16 at Tue Jun 21 10:46:11 2022.

 --------------------------------------------------------------------
 #N Geom=AllCheck Guess=TCheck SCRF=Check GenChk RM062X/6-31G(d) Freq
 --------------------------------------------------------------------

 Structure from the checkpoint file:  "/tmp/Gau-344670.chk"
 -------------------
 Title Card Required
 -------------------
 Charge =  0 Multiplicity = 1

                         Standard orientation:
 ---------------------------------------------------------------------
 Center     Atomic      Atomic             Coordinates (Angstroms)
 Number     Number       Type             X           Y           Z
 ---------------------------------------------------------------------
      1          6           0        2.265477    0.137456   -0.524106
      2          6           0        0.983396    1.814014   -0.580965
      3          6           0       -0.031263    0.455733    1.706779
      4          6           0        1.832974   -0.717741    0.472848
      5          1           0        2.004618   -0.127621   -1.542723
      6          1           0        3.179780    0.707609   -0.389757
      7          1           0        2.324105   -0.790708    1.437200
      8          6           0       -0.297846    1.299345   -0.555166
      9          6           0       -0.806208    0.637220    0.590596
     10          1           0        1.334629    2.288555   -1.492316
     11          1           0       -0.404651   -0.172459    2.508494
     12          1           0        1.440207    2.192152    0.326908
     13          1           0        0.795912    1.112059    1.932223
     14          6           0        0.786533   -1.675910    0.134072
     15          8           0        0.199510   -1.658415   -0.937154
     16          1           0        0.515726   -2.415171    0.912534
     17          8           0       -1.991385   -0.031614    0.581308
     18          6           0       -2.650271   -0.222891   -0.656549
     19          1           0       -3.521413   -0.839121   -0.432977
     20          1           0       -2.990237    0.730652   -1.079185
     21          1           0       -2.002537   -0.744273   -1.367360
     22          1           0       -0.837892    1.215200   -1.491338
 ---------------------------------------------------------------------

 SCF Done:  E(RM062X) =  -462.183359457     A.U. after    1 cycles

 The electronic state is 1-A.
 Alpha  occ. eigenvalues --  -19.65792 -19.61436 -10.61559 -10.60609 -10.58439
 Alpha  occ. eigenvalues --  -10.56767 -10.55854 -10.55498 -10.55063 -10.54869
 Alpha  occ. eigenvalues --   -1.17810  -1.13891  -0.91840  -0.86661  -0.83867
 Alpha  occ. eigenvalues --   -0.76961  -0.73308  -0.71344  -0.61781  -0.60038
 Alpha  occ. eigenvalues --   -0.59011  -0.57321  -0.54838  -0.53993  -0.50321
 Alpha  occ. eigenvalues --   -0.49156  -0.47570  -0.46843  -0.46151  -0.45842
 Alpha  occ. eigenvalues --   -0.44777  -0.42482  -0.40907  -0.38571  -0.37049
 Alpha  occ. eigenvalues --   -0.30994  -0.27511  -0.26925
 Alpha virt. eigenvalues --   -0.01659   0.03754   0.10458   0.13374   0.14717
 Alpha virt. eigenvalues --    0.15921   0.16943   0.18435   0.18961   0.20381
 Alpha virt. eigenvalues --    0.21428   0.21822   0.22688   0.23773   0.24834

 Mulliken charges:
               1
     1  C   -0.371644
     2  C   -0.394501
     3  C   -0.446839
     4  C   -0.183538
     5  H    0.212258
     6  H    0.176647
     7  H    0.166370
     8  C   -0.129790
     9  C    0.418781
    10  H    0.183424
    11  H    0.182718
    12  H    0.188485
    13  H    0.171991
    14  C    0.245622
    15  O   -0.467865
    16  H    0.122580
    17  O   -0.525896
    18  C   -0.254783
    19  H    0.181706
    20  H    0.150544
    21  H    0.198710
    22  H    0.175020
 Sum of Mulliken charges =  -0.00000

 Dipole moment (field-independent basis, Debye):
    X=              1.2123    Y=              1.7063    Z=              0.3960  Tot=              2.1303
 Quadrupole moment (field-independent basis, Debye-Ang):
   XX=            -55.3924   YY=            -61.7610   ZZ=            -58.5323
   XY=              2.6879   XZ=              4.4418   YZ=             -4.7383

  Exact polarizability:     107.579       3.299      89.063       0.546      -8.758      89.798
 Approx polarizability:     136.781       0.165     115.420      -0.126     -13.810     128.586

 ******    1 imaginary frequencies (negative Signs) ******

                      1                      2                      3
                      A                      A                      A
 Frequencies --   -449.0481                83.8671               114.3882
 Red. masses --      8.6819                 4.0816                 3.6450
 Frc consts  --      1.0315                 0.0169                 0.0281
 IR Inten    --     12.1626                 3.3824                 5.4260

                      4                      5                      6
                      A                      A                      A
 Frequencies --    137.5368               143.7722               226.1077
 Red. masses --      4.8308                 6.5579                 4.6414
 Frc consts  --      0.0538                 0.0799                 0.1398
 IR Inten    --      2.9638                 3.7465                 5.5429

                      7                      8                      9
                      A                      A                      A
 Frequencies --    255.5906               270.8985               296.9708
 Red. masses --      1.6537                 1.5591                 2.8686
 Frc consts  --      0.0636                 0.0674                 0.1491
 IR Inten    --      2.3162                 6.2821                 2.6618

                     10                     11                     12
                      A                      A                      A
 Frequencies --    336.8723               387.4067               415.4779
 Red. masses --      3.0151                 2.6410                 2.7402
 Frc consts  --      0.2016                 0.2335                 0.2787
 IR Inten    --      9.5269                 0.5948                 0.2283

                     13                     14                     15
                      A                      A                      A
 Frequencies --    469.5397               486.6499               570.7282
 Red. masses --      2.9782                 2.6302                 3.1819
 Frc consts  --      0.3869                 0.3670                 0.6107
 IR Inten    --      7.0558                 1.1461                 6.4808

                     16                     17                     18
                      A                      A                      A
 Frequencies --    605.8170               691.2781               734.1437
 Red. masses --      2.5470                 2.1480                 1.1350
 Frc consts  --      0.5508                 0.6048                 0.3604
 IR Inten    --      3.5966                 4.1095                 2.7096

                     19                     20                     21
                      A                      A                      A
 Frequencies --    772.8909               806.7611               853.1885
 Red. masses --      1.2800                 1.6782                 2.4220
 Frc consts  --      0.4505                 0.6436                 1.0388
 IR Inten    --     12.5773                13.0497                40.0692

                     22                     23                     24
                      A                      A                      A
 Frequencies --    884.9956               933.1640               960.8866
 Red. masses --      1.3968                 1.2090                 1.3194
 Frc consts  --      0.6445                 0.6203                 0.7178
 IR Inten    --     16.2962                 6.2154                 5.6596

                     25                     26                     27
                      A                      A                      A
 Frequencies --    964.3864               998.2695              1009.1668
 Red. masses --      1.4725                 1.4977                 1.4620
 Frc consts  --      0.8069                 0.8794                 0.8772
 IR Inten    --     17.7749                38.1486                 8.2165

                     28                     29                     30
                      A                      A                      A
 Frequencies --   1032.2723              1080.1684              1099.5564
 Red. masses --      1.6454                 1.2837                 1.2479
 Frc consts  --      1.0330                 0.8825                 0.8889
 IR Inten    --      1.7717                17.3020                 6.1212

                     31                     32                     33
                      A                      A                      A
 Frequencies --   1112.7251              1174.8591              1193.7294
 Red. masses --      1.4481                 4.6244                 1.2689
 Frc consts  --      1.0564                 3.7608                 1.0654
 IR Inten    --      1.1801                71.0603                 2.0722

                     34                     35                     36
                      A                      A                      A
 Frequencies --   1227.8268              1267.8045              1312.0953
 Red. masses --      1.3801                 1.5254                 1.4383
 Frc consts  --      1.2259                 1.4446                 1.4589
 IR Inten    --      2.0091                 4.5232                48.9178

                     37                     38                     39
                      A                      A                      A
 Frequencies --   1350.3894              1419.0631              1430.8375
 Red. masses --      2.8108                 1.2796                 1.2580
 Frc consts  --      3.0200                 1.5182                 1.5175
 IR Inten    --    112.6850                10.1183                19.9395

                     40                     41                     42
                      A                      A                      A
 Frequencies --   1449.8859              1496.1062              1520.4436
 Red. masses --      1.4653                 1.2514                 1.7039
 Frc consts  --      1.8148                 1.6503                 2.3208
 IR Inten    --     33.4442                22.0672                67.6210

                     43                     44                     45
                      A                      A                      A
 Frequencies --   1533.8440              1542.6495              1558.4495
 Red. masses --      1.0515                 1.0498                 1.8149
 Frc consts  --      1.4575                 1.4720                 2.5971
 IR Inten    --      6.9621                11.8022                24.0814

                     46                     47                     48
                      A                      A                      A
 Frequencies --   1627.1116              1654.4127              1793.6995
 Red. masses --      3.3166                 3.5112                 8.2882
 Frc consts  --      5.1735                 5.6623                15.7113
 IR Inten    --     22.4557                83.0611               139.4100

                     49                     50                     51
                      A                      A                      A
 Frequencies --   3005.9810              3066.8870              3149.9677
 Red. masses --      1.0860                 1.0385                 1.0998
 Frc consts  --      5.7818                 5.7549                 6.4292
 IR Inten    --    114.0948                52.1315                16.2847

                     52                     53                     54
                      A                      A                      A
 Frequencies --   3194.7356              3196.5463              3200.9036
 Red. masses --      1.0569                 1.1035                 1.0577
 Frc consts  --      6.3554                 6.6430                 6.3850
 IR Inten    --      0.7936                21.2532                 6.0589

                     55                     56                     57
                      A                      A                      A
 Frequencies --   3228.4902              3247.0953              3254.0059
 Red. masses --      1.0609                 1.0931                 1.0914
 Frc consts  --      6.5150                 6.7906                 6.8089
 IR Inten    --      0.0864                 4.5539                 1.2023

                     58                     59                     60
                      A                      A                      A
 Frequencies --   3280.4587              3289.5862              3330.4480
 Red. masses --      1.1141                 1.1163                 1.1143
 Frc consts  --      7.0636                 7.1172                 7.2823
 IR Inten    --      4.7092                 2.2383                 0.9674

 - Thermochemistry -
 -------------------
 Temperature   298.150 Kelvin.  Pressure   1.00000 Atm.
 Atom     1 has atomic number  6 and mass  12.00000

 Molecular mass:   140.08373 amu.
 Principal axes and moments of inertia in atomic units:
                           1         2         3
     Eigenvalues --   978.562001536.020811796.73941
           X            0.99833   0.05007   0.02884
           Y           -0.04784   0.99615  -0.07341
           Z           -0.03240   0.07191   0.99688
 This molecule is an asymmetric top.
 Rotational symmetry number  1.
 Warning -- assumption of classical behavior for rotation
           may cause significant error
 Rotational temperatures (Kelvin)      0.08851     0.05639     0.04821
 Rotational constants (GHZ):           1.84428     1.17495     1.00445
    1 imaginary frequencies ignored.
 Zero-point vibrational energy     488876.6 (Joules/Mol)
                                  116.84432 (Kcal/Mol)
 Warning -- explicit consideration of  15 degrees of freedom as
           vibrations may cause significant error
 Vibrational temperatures:    120.67   164.58   197.88   206.86   325.32
          (Kelvin)            367.74   389.76   427.27   484.68   557.39
                              597.78   675.56   700.18   821.15   871.64
                              994.59  1056.27  1112.02  1160.75  1227.55
                             1273.31  1342.61  1382.50  1387.54  1436.29
                             1451.97  1485.21  1554.12  1582.02  1600.96
                             1690.36  1717.51  1766.57  1824.09  1887.81
                             1942.91  2041.72  2058.66  2086.06  2152.56
                             2187.58  2206.86  2219.53  2242.26  2341.05
                             2380.33  2580.73  4324.94  4412.57  4532.10
                             4596.51  4599.12  4605.39  4645.08  4671.85
                             4681.79  4719.85  4732.98  4791.77

 Zero-point correction=                           0.186203 (Hartree/Particle)
 Thermal correction to Energy=                    0.196463
 Thermal correction to Enthalpy=                  0.197407
 Thermal correction to Gibbs Free Energy=         0.151187
 Sum of electronic and zero-point Energies=           -461.997156
 Sum of electronic and thermal Energies=              -461.986896
 Sum of electronic and thermal Enthalpies=            -461.985952
 Sum of electronic and thermal Free Energies=         -462.032172

                     E (Thermal)             CV                S
                      KCal/Mol        Cal/Mol-Kelvin    Cal/Mol-Kelvin
 Total                  123.283             38.950             97.278
 Electronic               0.000              0.000              0.000
 Translational            0.889              2.981             40.723
 Rotational               0.889              2.981             29.381
 Vibrational            121.505             32.988             27.175
 Vibration     1          0.601              1.960              3.798
 Vibration     2          0.607              1.938              3.193
 Vibration     3          0.614              1.916              2.838
 Vibration     4          0.616              1.909              2.753
 Vibration     5          0.650              1.801              1.910
 Vibration     6          0.666              1.753              1.692
 Vibration     7          0.675              1.727              1.590
 Vibration     8          0.691              1.679              1.434
 Vibration     9          0.718              1.602              1.227
 Vibration    10          0.756              1.497              1.010
 Vibration    11          0.779              1.437              0.907
 Vibration    12          0.827              1.318              0.739
 Vibration    13          0.843              1.280              0.692
 Vibration    14          0.927              1.095              0.503
 Vibration    15          0.964              1.019              0.440

                           ! Non-Optimized Parameters !
 Normal termination of Gaussian 16 at Tue Jun 21 10:47:50 2022.
