 Gaussian 16, Revision C.01,
 Gaussian 16:  AS64L-G16RevC.01  3-Jul-2019

 -------------------------------------------------
 # opt=(calcfc,ts,noeigentest) freq 6-31g(d) m062x
 -------------------------------------------------

 -------------------
 Title Card Required
 -------------------
 Symbolic Z-matrix:
 Charge =  0 Multiplicity = 1

 SCF Done:  E(RM062X) =  -462.172643355     A.U. after   16 cycles
 SCF Done:  E(RM062X) =  -462.177191954     A.U. after   17 cycles
 SCF Done:  E(RM062X) =  -462.169969102     A.U. after   18 cycles
 SCF Done:  E(RM062X) =  -462.177446799     A.U. after   15 cycles
 SCF Done:  E(RM062X) =  -462.178560339     A.U. after   15 cycles
 SCF Done:  E(RM062X) =  -462.179012094     A.U. after   16 cycles
 SCF Done:  E(RM062X) =  -462.180549477     A.U. after   15 cycles
 SCF Done:  E(RM062X) =  -462.180725856     A.U. after   14 cycles
 SCF Done:  E(RM062X) =  -462.180736007     A.U. after   11 cycles
 SCF Done:  E(RM062X) =  -462.180731197     A.U. after   11 cycles
 SCF Done:  E(RM062X) =  -462.180739815     A.U. after   10 cycles
 SCF Done:  E(RM062X) =  -462.178705590     A.U. after   15 cycles
 SCF Done:  E(RM062X) =  -462.180443000     A.U. after   14 cycles
 SCF Done:  E(RM062X) =  -462.180697309     A.U. after   14 cycles
 SCF Done:  E(RM062X) =  -462.180740634     A.U. after   13 cycles
 SCF Done:  E(RM062X) =  -462.180740802     A.U. after    9 cycles
 Optimization completed.
    -- Stationary point found.
 Normal termination of Gaussian 16 at Tue Jun 21 11:10:06 2022.

 --------------------------------------------------------------------
 #N Geom=AllCheck Guess=TCheck SCRF=Check GenChk RM062X/6-31G(d) Freq
 --------------------------------------------------------------------

 Structure from the checkpoint file:  "DATS_13_endo_iv.chk"
 -------------------
 Title Card Required
 -------------------
 Charge =  0 Multiplicity = 1

                         Standard orientation:
 ---------------------------------------------------------------------
 Center     Atomic      Atomic             Coordinates (Angstroms)
 Number     Number       Type             X           Y           Z
 ---------------------------------------------------------------------
      1          6           0       -2.226258    0.398227   -0.369848
      2          6           0       -1.842722   -1.643016    0.059106
      3          6           0        0.282917   -0.225700    1.273293
      4          6           0       -1.293201    1.197469    0.278895
      5          1           0       -2.145034    0.279533   -1.446380
      6          1           0       -3.237572    0.340653    0.020090
      7          1           0       -1.513654    1.657068    1.238130
      8          6           0       -0.536273   -1.819467   -0.352997
      9          6           0        0.520656   -1.086944    0.223499
     10          1           0       -2.634616   -2.157352   -0.477956
     11          1           0        1.034658    0.460009    1.644739
     12          1           0       -2.070644   -1.441950    1.100513
     13          1           0       -0.530730   -0.442446    1.950905
     14          6           0       -0.176568    1.776505   -0.479370
     15          8           0        0.524552    2.697536   -0.115488
     16          1           0        0.003365    1.276293   -1.458992
     17          8           0        1.675077   -1.108275   -0.500524
     18          1           0       -0.325902   -2.301798   -1.303854
     19          6           0        2.733209   -0.286766   -0.049381
     20          1           0        2.464306    0.775349   -0.102802
     21          1           0        3.015642   -0.537845    0.980573
     22          1           0        3.572596   -0.483441   -0.716056
 ---------------------------------------------------------------------

 SCF Done:  E(RM062X) =  -462.180740802     A.U. after    1 cycles

 The electronic state is 1-A.
 Alpha  occ. eigenvalues --  -19.66851 -19.61799 -10.62300 -10.61137 -10.59426
 Alpha  occ. eigenvalues --  -10.57095 -10.56410 -10.56052 -10.55779 -10.55389
 Alpha  occ. eigenvalues --   -1.18827  -1.14611  -0.92735  -0.87499  -0.82943
 Alpha  occ. eigenvalues --   -0.80399  -0.72621  -0.70173  -0.64463  -0.61705
 Alpha  occ. eigenvalues --   -0.59324  -0.56248  -0.54766  -0.53110  -0.52924
 Alpha  occ. eigenvalues --   -0.50646  -0.47766  -0.47460  -0.46411  -0.46038
 Alpha  occ. eigenvalues --   -0.44125  -0.43213  -0.43029  -0.40306  -0.37553
 Alpha  occ. eigenvalues --   -0.31287  -0.28287  -0.27061
 Alpha virt. eigenvalues --   -0.01505   0.04074   0.08505   0.12759   0.14746
 Alpha virt. eigenvalues --    0.15270   0.16469   0.17249   0.17673   0.18884
 Alpha virt. eigenvalues --    0.20984   0.21169   0.22037   0.22825   0.23663

 Mulliken charges:
               1
     1  C   -0.390896
     2  C   -0.382400
     3  C   -0.461773
     4  C   -0.176890
     5  H    0.184165
     6  H    0.188523
     7  H    0.178625
     8  C   -0.141778
     9  C    0.404672
    10  H    0.181494
    11  H    0.199209
    12  H    0.186382
    13  H    0.184962
    14  C    0.258346
    15  O   -0.457671
    16  H    0.114967
    17  O   -0.521061
    18  H    0.176784
    19  C   -0.256374
    20  H    0.184746
    21  H    0.159183
    22  H    0.186785
 Sum of Mulliken charges =  -0.00000

 Dipole moment (field-independent basis, Debye):
    X=             -1.5291    Y=             -2.3019    Z=              0.5809  Tot=              2.8239
 Quadrupole moment (field-independent basis, Debye-Ang):
   XX=            -52.1432   YY=            -72.7947   ZZ=            -57.6433
   XY=              0.2498   XZ=              0.6144   YZ=              0.8648

  Exact polarizability:     111.593       6.320     101.863       2.139       8.080      75.267
 Approx polarizability:     138.681       7.526     141.829       6.009      18.147     101.016

 ******    1 imaginary frequencies (negative Signs) ******

                      1                      2                      3
                      A                      A                      A
 Frequencies --   -516.2678                70.0861                93.3472
 Red. masses --      8.7530                 5.3809                 3.7453
 Frc consts  --      1.3745                 0.0156                 0.0192
 IR Inten    --     10.2918                 3.7317                 3.4691

                      4                      5                      6
                      A                      A                      A
 Frequencies --    136.8693               163.2562               194.7218
 Red. masses --      4.0054                 4.4451                 3.0318
 Frc consts  --      0.0442                 0.0698                 0.0677
 IR Inten    --      1.3395                 7.9139                 5.3546

                      7                      8                      9
                      A                      A                      A
 Frequencies --    245.2945               292.0898               310.7018
 Red. masses --      2.5222                 2.7693                 1.1979
 Frc consts  --      0.0894                 0.1392                 0.0681
 IR Inten    --      1.9902                 3.2120                 0.2069

                     10                     11                     12
                      A                      A                      A
 Frequencies --    349.4100               377.2609               417.9337
 Red. masses --      2.6777                 2.9261                 3.7454
 Frc consts  --      0.1926                 0.2454                 0.3854
 IR Inten    --      6.1080                 6.3065                 6.9170

                     13                     14                     15
                      A                      A                      A
 Frequencies --    430.6276               508.8544               549.8225
 Red. masses --      3.0821                 3.4180                 2.2689
 Frc consts  --      0.3367                 0.5214                 0.4041
 IR Inten    --      1.2700                 0.8999                 1.6567

                     16                     17                     18
                      A                      A                      A
 Frequencies --    584.1663               612.3916               756.2957
 Red. masses --      3.3631                 2.7297                 1.1515
 Frc consts  --      0.6762                 0.6031                 0.3881
 IR Inten    --      8.3566                 3.2148                 7.8535

                     19                     20                     21
                      A                      A                      A
 Frequencies --    786.6148               828.7823               883.7708
 Red. masses --      1.3328                 1.5051                 2.2252
 Frc consts  --      0.4859                 0.6091                 1.0240
 IR Inten    --      8.8947                17.5968                33.8705

                     22                     23                     24
                      A                      A                      A
 Frequencies --    902.4104               926.4024               945.8453
 Red. masses --      1.2856                 1.3349                 1.1456
 Frc consts  --      0.6168                 0.6750                 0.6038
 IR Inten    --      9.4910                 7.6162                 2.6311

                     25                     26                     27
                      A                      A                      A
 Frequencies --    976.2931              1006.4360              1024.5659
 Red. masses --      1.3830                 1.2376                 1.6518
 Frc consts  --      0.7766                 0.7386                 1.0216
 IR Inten    --      7.5454                19.3146                 7.8270

                     28                     29                     30
                      A                      A                      A
 Frequencies --   1045.6888              1076.4549              1104.5168
 Red. masses --      1.2735                 1.2498                 1.4264
 Frc consts  --      0.8205                 0.8533                 1.0252
 IR Inten    --      2.7610                19.8033                 0.1326

                     31                     32                     33
                      A                      A                      A
 Frequencies --   1141.4084              1183.9632              1200.2755
 Red. masses --      4.3859                 1.7525                 1.2739
 Frc consts  --      3.3666                 1.4474                 1.0813
 IR Inten    --     53.5184                67.7983                 0.5176

                     34                     35                     36
                      A                      A                      A
 Frequencies --   1239.2150              1260.9285              1289.3564
 Red. masses --      1.4130                 1.6687                 1.5480
 Frc consts  --      1.2784                 1.5631                 1.5163
 IR Inten    --      3.5737                 3.5605                25.1592

                     37                     38                     39
                      A                      A                      A
 Frequencies --   1361.3625              1385.0810              1434.0944
 Red. masses --      2.7485                 1.5191                 1.3378
 Frc consts  --      3.0012                 1.7171                 1.6211
 IR Inten    --    119.0034                19.5060                38.4867

                     40                     41                     42
                      A                      A                      A
 Frequencies --   1463.8628              1503.6785              1523.2744
 Red. masses --      1.3174                 1.3401                 1.3540
 Frc consts  --      1.6632                 1.7852                 1.8511
 IR Inten    --      8.4826                20.0743                34.6484

                     43                     44                     45
                      A                      A                      A
 Frequencies --   1532.9395              1548.5490              1560.9104
 Red. masses --      1.1689                 1.0846                 1.5054
 Frc consts  --      1.6184                 1.5323                 2.1610
 IR Inten    --     11.0473                16.8357                 3.6735

                     46                     47                     48
                      A                      A                      A
 Frequencies --   1624.0144              1644.2677              1841.9079
 Red. masses --      3.1086                 3.2610                 9.7982
 Frc consts  --      4.8305                 5.1945                19.5855
 IR Inten    --     35.9785                63.3169               346.9950

                     49                     50                     51
                      A                      A                      A
 Frequencies --   2931.3652              3062.2406              3130.8889
 Red. masses --      1.0834                 1.0350                 1.1066
 Frc consts  --      5.4852                 5.7185                 6.3910
 IR Inten    --     66.1067                38.3925                19.9893

                     52                     53                     54
                      A                      A                      A
 Frequencies --   3190.9273              3196.4402              3199.4243
 Red. masses --      1.0570                 1.0580                 1.1009
 Frc consts  --      6.3411                 6.3687                 6.6399
 IR Inten    --      2.1612                 5.5438                20.1012

                     55                     56                     57
                      A                      A                      A
 Frequencies --   3226.0200              3229.9726              3241.5208
 Red. masses --      1.0915                 1.0916                 1.0589
 Frc consts  --      6.6930                 6.7097                 6.5552
 IR Inten    --      0.6827                 2.1114                 0.1216

                     58                     59                     60
                      A                      A                      A
 Frequencies --   3272.5990              3276.1526              3323.6982
 Red. masses --      1.1157                 1.1151                 1.1164
 Frc consts  --      7.0400                 7.0519                 7.2662
 IR Inten    --      2.5947                 7.5275                 0.8250

 - Thermochemistry -
 -------------------
 Temperature   298.150 Kelvin.  Pressure   1.00000 Atm.
 Atom     1 has atomic number  6 and mass  12.00000

 Molecular mass:   140.08373 amu.
 Principal axes and moments of inertia in atomic units:
                           1         2         3
     Eigenvalues --  1237.655661337.602672231.28301
           X            0.98674   0.16225   0.00494
           Y           -0.16228   0.98672   0.00738
           Z           -0.00367  -0.00809   0.99996
 This molecule is an asymmetric top.
 Rotational symmetry number  1.
 Warning -- assumption of classical behavior for rotation
           may cause significant error
 Rotational temperatures (Kelvin)      0.06998     0.06475     0.03882
 Rotational constants (GHZ):           1.45819     1.34924     0.80884
    1 imaginary frequencies ignored.
 Zero-point vibrational energy     488203.5 (Joules/Mol)
                                  116.68343 (Kcal/Mol)
 Warning -- explicit consideration of  16 degrees of freedom as
           vibrations may cause significant error
 Vibrational temperatures:    100.84   134.31   196.92   234.89   280.16
          (Kelvin)            352.92   420.25   447.03   502.72   542.79
                              601.31   619.58   732.13   791.07   840.49
                              881.09  1088.14  1131.76  1192.43  1271.55
                             1298.37  1332.89  1360.86  1404.67  1448.04
                             1474.12  1504.51  1548.78  1589.15  1642.23
                             1703.46  1726.93  1782.95  1814.19  1855.10
                             1958.70  1992.82  2063.34  2106.17  2163.46
                             2191.65  2205.56  2228.02  2245.80  2336.59
                             2365.73  2650.09  4217.58  4405.88  4504.65
                             4591.03  4598.96  4603.26  4641.52  4647.21
                             4663.83  4708.54  4713.65  4782.06

 Zero-point correction=                           0.185947 (Hartree/Particle)
 Thermal correction to Energy=                    0.196298
 Thermal correction to Enthalpy=                  0.197242
 Thermal correction to Gibbs Free Energy=         0.150499
 Sum of electronic and zero-point Energies=           -461.994794
 Sum of electronic and thermal Energies=              -461.984443
 Sum of electronic and thermal Enthalpies=            -461.983499
 Sum of electronic and thermal Free Energies=         -462.030241

                     E (Thermal)             CV                S
                      KCal/Mol        Cal/Mol-Kelvin    Cal/Mol-Kelvin
 Total                  123.179             39.008             98.378
 Electronic               0.000              0.000              0.000
 Translational            0.889              2.981             40.723
 Rotational               0.889              2.981             29.692
 Vibrational            121.401             33.046             27.963
 Vibration     1          0.598              1.968              4.151
 Vibration     2          0.602              1.954              3.589
 Vibration     3          0.614              1.917              2.847
 Vibration     4          0.623              1.888              2.512
 Vibration     5          0.635              1.847              2.182
 Vibration     6          0.660              1.771              1.764
 Vibration     7          0.687              1.688              1.462
 Vibration     8          0.700              1.653              1.359
 Vibration     9          0.727              1.576              1.169
 Vibration    10          0.748              1.519              1.050
 Vibration    11          0.781              1.431              0.899
 Vibration    12          0.792              1.404              0.857
 Vibration    13          0.864              1.230              0.636
 Vibration    14          0.905              1.140              0.545
 Vibration    15          0.941              1.066              0.478
 Vibration    16          0.972              1.006              0.429

                           ! Non-Optimized Parameters !
 Normal termination of Gaussian 16 at Tue Jun 21 11:11:39 2022.
