 Gaussian 16, Revision C.01,
 Gaussian 16:  AS64L-G16RevC.01  3-Jul-2019

 -------------------------------------------------
 # opt=(calcfc,ts,noeigentest) freq 6-31g(d) m062x
 -------------------------------------------------

 -------------------
 Title Card Required
 -------------------
 Symbolic Z-matrix:
 Charge =  0 Multiplicity = 1

 SCF Done:  E(RM062X) =  -462.174484881     A.U. after   17 cycles
 SCF Done:  E(RM062X) =  -462.180032579     A.U. after   17 cycles
 SCF Done:  E(RM062X) =  -462.180327192     A.U. after   16 cycles
 SCF Done:  E(RM062X) =  -462.177095769     A.U. after   17 cycles
 SCF Done:  E(RM062X) =  -462.174528899     A.U. after   17 cycles
 SCF Done:  E(RM062X) =  -462.178778206     A.U. after   15 cycles
 SCF Done:  E(RM062X) =  -462.180503031     A.U. after   15 cycles
 SCF Done:  E(RM062X) =  -462.181243467     A.U. after   14 cycles
 SCF Done:  E(RM062X) =  -462.181090040     A.U. after   14 cycles
 SCF Done:  E(RM062X) =  -462.178301648     A.U. after   15 cycles
 SCF Done:  E(RM062X) =  -462.180953442     A.U. after   15 cycles
 SCF Done:  E(RM062X) =  -462.181318885     A.U. after   15 cycles
 SCF Done:  E(RM062X) =  -462.181347460     A.U. after   13 cycles
 SCF Done:  E(RM062X) =  -462.181357769     A.U. after   12 cycles
 SCF Done:  E(RM062X) =  -462.181364078     A.U. after   10 cycles
 SCF Done:  E(RM062X) =  -462.181364715     A.U. after   10 cycles
 SCF Done:  E(RM062X) =  -462.181365156     A.U. after    9 cycles
 SCF Done:  E(RM062X) =  -462.181365106     A.U. after    7 cycles
 Optimization completed.
    -- Stationary point found.
 Normal termination of Gaussian 16 at Tue Jun 21 10:22:08 2022.

 --------------------------------------------------------------------
 #N Geom=AllCheck Guess=TCheck SCRF=Check GenChk RM062X/6-31G(d) Freq
 --------------------------------------------------------------------

 Structure from the checkpoint file:  "/tmp/Gau-3358753.chk"
 -------------------
 Title Card Required
 -------------------
 Charge =  0 Multiplicity = 1

                         Standard orientation:
 ---------------------------------------------------------------------
 Center     Atomic      Atomic             Coordinates (Angstroms)
 Number     Number       Type             X           Y           Z
 ---------------------------------------------------------------------
      1          6           0        0.953839   -1.270069    0.758124
      2          6           0       -0.248610   -1.002944   -0.913206
      3          6           0        0.326401    1.748529   -0.337817
      4          6           0        1.614509   -0.099908    1.096694
      5          1           0        0.204599   -1.681339    1.427376
      6          1           0        1.513896   -1.996538    0.175278
      7          1           0        1.334597    0.488755    1.962683
      8          6           0       -1.220918   -0.126166   -0.473179
      9          6           0       -0.911128    1.226481   -0.138504
     10          1           0       -0.563708   -2.017603   -1.136051
     11          1           0        0.563144    2.743452    0.026394
     12          1           0       -1.636041    1.807834    0.421770
     13          1           0        0.611688   -0.636620   -1.462356
     14          1           0        1.047155    1.301254   -1.010696
     15          8           0       -2.425002   -0.684091   -0.182068
     16          6           0       -3.422744    0.113785    0.419443
     17          1           0       -3.666242    0.985064   -0.199239
     18          1           0       -4.302191   -0.524084    0.504588
     19          1           0       -3.122931    0.450183    1.418971
     20          6           0        2.785056    0.284398    0.332859
     21          8           0        3.095556   -0.225878   -0.735817
     22          1           0        3.393168    1.114764    0.747878
 ---------------------------------------------------------------------

 SCF Done:  E(RM062X) =  -462.181365106     A.U. after    1 cycles

 The electronic state is 1-A.
 Alpha  occ. eigenvalues --  -19.68093 -19.60624 -10.62246 -10.60972 -10.60884
 Alpha  occ. eigenvalues --  -10.56688 -10.56252 -10.56095 -10.55284 -10.53370
 Alpha  occ. eigenvalues --   -1.20058  -1.13084  -0.92454  -0.86398  -0.85073
 Alpha  occ. eigenvalues --   -0.78614  -0.72709  -0.72094  -0.62670  -0.60865
 Alpha  occ. eigenvalues --   -0.59211  -0.57364  -0.55722  -0.55498  -0.50143
 Alpha  occ. eigenvalues --   -0.49418  -0.48489  -0.47670  -0.46454  -0.45049
 Alpha  occ. eigenvalues --   -0.44741  -0.42720  -0.42380  -0.40135  -0.36970
 Alpha  occ. eigenvalues --   -0.31665  -0.30220  -0.24290
 Alpha virt. eigenvalues --   -0.01987   0.02930   0.11307   0.13216   0.14602
 Alpha virt. eigenvalues --    0.15330   0.16625   0.18077   0.18597   0.19319
 Alpha virt. eigenvalues --    0.20165   0.20779   0.21836   0.22933   0.24543

 Mulliken charges:
               1
     1  C   -0.355685
     2  C   -0.463376
     3  C   -0.378758
     4  C   -0.189006
     5  H    0.182005
     6  H    0.214195
     7  H    0.154816
     8  C    0.425381
     9  C   -0.162200
    10  H    0.190579
    11  H    0.176336
    12  H    0.164747
    13  H    0.220867
    14  H    0.206943
    15  O   -0.511424
    16  C   -0.246054
    17  H    0.168634
    18  H    0.193912
    19  H    0.164647
    20  C    0.207617
    21  O   -0.476299
    22  H    0.112121
 Sum of Mulliken charges =   0.00000

 Dipole moment (field-independent basis, Debye):
    X=             -3.9328    Y=              1.5434    Z=              2.1320  Tot=              4.7323
 Quadrupole moment (field-independent basis, Debye-Ang):
   XX=            -63.7036   YY=            -56.6046   ZZ=            -61.6799
   XY=              0.3360   XZ=              1.6229   YZ=              1.1511

  Exact polarizability:     143.001       0.802      95.050       3.163       4.490      70.913
 Approx polarizability:     171.896       2.332     127.208       6.265       7.974      96.683

 ******    1 imaginary frequencies (negative Signs) ******

                      1                      2                      3
                      A                      A                      A
 Frequencies --   -425.4847                55.8393                80.0323
 Red. masses --      8.8448                 3.5352                 4.0025
 Frc consts  --      0.9434                 0.0065                 0.0151
 IR Inten    --     57.5183                 0.4221                 1.1964

                      4                      5                      6
                      A                      A                      A
 Frequencies --    116.9562               131.3187               187.0260
 Red. masses --      7.5992                 4.4035                 3.1315
 Frc consts  --      0.0612                 0.0447                 0.0645
 IR Inten    --      1.8812                17.7295                 7.3802

                      7                      8                      9
                      A                      A                      A
 Frequencies --    208.5980               265.4360               293.8483
 Red. masses --      3.0015                 1.3299                 2.8136
 Frc consts  --      0.0769                 0.0552                 0.1431
 IR Inten    --     22.2394                 3.7200                 0.3204

                     10                     11                     12
                      A                      A                      A
 Frequencies --    315.0575               344.7004               401.7160
 Red. masses --      2.8332                 2.1284                 2.6774
 Frc consts  --      0.1657                 0.1490                 0.2546
 IR Inten    --     12.4661                 0.4422                 4.7433

                     13                     14                     15
                      A                      A                      A
 Frequencies --    459.7927               488.8532               551.9981
 Red. masses --      3.2802                 2.3422                 1.9931
 Frc consts  --      0.4086                 0.3298                 0.3578
 IR Inten    --     45.9004                 1.3043                 1.6585

                     16                     17                     18
                      A                      A                      A
 Frequencies --    571.7392               681.4312               741.4445
 Red. masses --      3.0205                 1.9843                 1.8508
 Frc consts  --      0.5817                 0.5429                 0.5995
 IR Inten    --     23.7204                15.3260                 3.3964

                     19                     20                     21
                      A                      A                      A
 Frequencies --    775.1189               842.2284               877.4387
 Red. masses --      1.5751                 2.5656                 1.3062
 Frc consts  --      0.5576                 1.0723                 0.5925
 IR Inten    --     11.4831                 8.8616                11.7948

                     22                     23                     24
                      A                      A                      A
 Frequencies --    921.0611               963.4498               978.5998
 Red. masses --      1.1872                 1.6020                 1.3198
 Frc consts  --      0.5934                 0.8761                 0.7447
 IR Inten    --     47.7713                61.6196                 6.9409

                     25                     26                     27
                      A                      A                      A
 Frequencies --    984.1996              1010.8970              1020.5420
 Red. masses --      1.2516                 1.3577                 1.5571
 Frc consts  --      0.7143                 0.8174                 0.9555
 IR Inten    --     14.2298                22.2229                60.4652

                     28                     29                     30
                      A                      A                      A
 Frequencies --   1030.4003              1081.4654              1105.6504
 Red. masses --      1.5413                 1.3693                 1.3237
 Frc consts  --      0.9642                 0.9436                 0.9534
 IR Inten    --     20.0314                 6.9415                 4.2432

                     31                     32                     33
                      A                      A                      A
 Frequencies --   1116.8988              1181.9431              1190.3614
 Red. masses --      1.3520                 3.6176                 1.3099
 Frc consts  --      0.9937                 2.9776                 1.0935
 IR Inten    --      8.6798                91.7378                 8.6258

                     34                     35                     36
                      A                      A                      A
 Frequencies --   1225.1557              1269.1929              1317.3337
 Red. masses --      1.3756                 1.4955                 1.5654
 Frc consts  --      1.2165                 1.4193                 1.6006
 IR Inten    --      0.1563                37.5392               157.2107

                     37                     38                     39
                      A                      A                      A
 Frequencies --   1379.6494              1419.8733              1436.5953
 Red. masses --      2.2090                 1.3148                 1.3052
 Frc consts  --      2.4774                 1.5617                 1.5871
 IR Inten    --    245.8641                42.6803                19.1484

                     40                     41                     42
                      A                      A                      A
 Frequencies --   1458.4171              1498.7778              1521.0710
 Red. masses --      1.4528                 1.3443                 1.5932
 Frc consts  --      1.8206                 1.7791                 2.1718
 IR Inten    --     41.0972                64.6535                33.4108

                     43                     44                     45
                      A                      A                      A
 Frequencies --   1532.4158              1540.5954              1552.7027
 Red. masses --      1.0463                 1.0534                 1.8858
 Frc consts  --      1.4477                 1.4731                 2.6787
 IR Inten    --      7.9369                48.1123               194.8782

                     46                     47                     48
                      A                      A                      A
 Frequencies --   1623.8430              1675.4567              1788.5287
 Red. masses --      3.0632                 3.4898                 7.9688
 Frc consts  --      4.7590                 5.7718                15.0188
 IR Inten    --      6.5238               117.1835               214.0207

                     49                     50                     51
                      A                      A                      A
 Frequencies --   2977.1902              3066.4070              3133.6172
 Red. masses --      1.0844                 1.0347                 1.1067
 Frc consts  --      5.6630                 5.7325                 6.4027
 IR Inten    --    176.3106                51.3808                33.8488

                     52                     53                     54
                      A                      A                      A
 Frequencies --   3186.4969              3198.7231              3201.4602
 Red. masses --      1.0569                 1.1005                 1.0584
 Frc consts  --      6.3228                 6.6342                 6.3916
 IR Inten    --      3.9618                21.1822                 3.9816

                     55                     56                     57
                      A                      A                      A
 Frequencies --   3213.6152              3241.8578              3251.6685
 Red. masses --      1.0598                 1.0907                 1.0933
 Frc consts  --      6.4487                 6.7539                 6.8108
 IR Inten    --      1.9337                 8.8037                 5.0018

                     58                     59                     60
                      A                      A                      A
 Frequencies --   3276.8324              3290.8639              3308.5658
 Red. masses --      1.1154                 1.1183                 1.1152
 Frc consts  --      7.0567                 7.1356                 7.1924
 IR Inten    --      3.1547                 1.1318                 2.6195

 - Thermochemistry -
 -------------------
 Temperature   298.150 Kelvin.  Pressure   1.00000 Atm.
 Atom     1 has atomic number  6 and mass  12.00000

 Molecular mass:   140.08373 amu.
 Principal axes and moments of inertia in atomic units:
                           1         2         3
     Eigenvalues --   658.856122418.195212636.78098
           X            0.99999  -0.00198  -0.00409
           Y            0.00211   0.99947   0.03261
           Z            0.00402  -0.03262   0.99946
 This molecule is an asymmetric top.
 Rotational symmetry number  1.
 Warning -- assumption of classical behavior for rotation
           may cause significant error
 Rotational temperatures (Kelvin)      0.13146     0.03582     0.03285
 Rotational constants (GHZ):           2.73920     0.74632     0.68445
    1 imaginary frequencies ignored.
 Zero-point vibrational energy     487854.8 (Joules/Mol)
                                  116.60009 (Kcal/Mol)
 Warning -- explicit consideration of  15 degrees of freedom as
           vibrations may cause significant error
 Vibrational temperatures:     80.34   115.15   168.27   188.94   269.09
          (Kelvin)            300.13   381.90   422.78   453.30   495.95
                              577.98   661.54   703.35   794.20   822.61
                              980.43  1066.77  1115.22  1211.78  1262.44
                             1325.20  1386.19  1407.99  1416.04  1454.46
                             1468.33  1482.52  1555.99  1590.78  1606.97
                             1700.55  1712.66  1762.73  1826.09  1895.35
                             1985.01  2042.88  2066.94  2098.34  2156.41
                             2188.48  2204.80  2216.57  2233.99  2336.35
                             2410.61  2573.29  4283.51  4411.88  4508.58
                             4584.66  4602.25  4606.19  4623.68  4664.31
                             4678.43  4714.63  4734.82  4760.29

 Zero-point correction=                           0.185814 (Hartree/Particle)
 Thermal correction to Energy=                    0.196480
 Thermal correction to Enthalpy=                  0.197424
 Thermal correction to Gibbs Free Energy=         0.149521
 Sum of electronic and zero-point Energies=           -461.995551
 Sum of electronic and thermal Energies=              -461.984885
 Sum of electronic and thermal Enthalpies=            -461.983941
 Sum of electronic and thermal Free Energies=         -462.031844

                     E (Thermal)             CV                S
                      KCal/Mol        Cal/Mol-Kelvin    Cal/Mol-Kelvin
 Total                  123.293             39.185            100.820
 Electronic               0.000              0.000              0.000
 Translational            0.889              2.981             40.723
 Rotational               0.889              2.981             29.820
 Vibrational            121.515             33.224             30.277
 Vibration     1          0.596              1.975              4.599
 Vibration     2          0.600              1.963              3.890
 Vibration     3          0.608              1.935              3.150
 Vibration     4          0.612              1.922              2.927
 Vibration     5          0.632              1.858              2.257
 Vibration     6          0.642              1.828              2.056
 Vibration     7          0.671              1.736              1.626
 Vibration     8          0.689              1.685              1.452
 Vibration     9          0.702              1.645              1.336
 Vibration    10          0.723              1.586              1.190
 Vibration    11          0.767              1.466              0.956
 Vibration    12          0.818              1.339              0.767
 Vibration    13          0.845              1.275              0.687
 Vibration    14          0.907              1.135              0.540
 Vibration    15          0.928              1.092              0.501

 Optimization completed.
    -- Stationary point found.
 Normal termination of Gaussian 16 at Tue Jun 21 10:23:37 2022.
