 Gaussian 16, Revision C.01,
 Gaussian 16:  AS64L-G16RevC.01  3-Jul-2019

 -------------------------------------------------
 # opt=(calcfc,ts,noeigentest) freq 6-31g(d) m062x
 -------------------------------------------------

 -------------------
 Title Card Required
 -------------------
 Symbolic Z-matrix:
 Charge =  0 Multiplicity = 1

 SCF Done:  E(RM062X) =  -462.164927610     A.U. after   16 cycles
 SCF Done:  E(RM062X) =  -462.176251227     A.U. after   16 cycles
 SCF Done:  E(RM062X) =  -462.176855699     A.U. after   17 cycles
 SCF Done:  E(RM062X) =  -462.177292054     A.U. after   14 cycles
 SCF Done:  E(RM062X) =  -462.176626208     A.U. after   16 cycles
 SCF Done:  E(RM062X) =  -462.177471199     A.U. after   14 cycles
 SCF Done:  E(RM062X) =  -462.177647353     A.U. after   14 cycles
 SCF Done:  E(RM062X) =  -462.177749572     A.U. after   13 cycles
 SCF Done:  E(RM062X) =  -462.177770690     A.U. after   11 cycles
 SCF Done:  E(RM062X) =  -462.177778340     A.U. after   10 cycles
 SCF Done:  E(RM062X) =  -462.177782883     A.U. after   11 cycles
 SCF Done:  E(RM062X) =  -462.177789783     A.U. after   12 cycles
 SCF Done:  E(RM062X) =  -462.177795930     A.U. after   11 cycles
 SCF Done:  E(RM062X) =  -462.177797197     A.U. after   10 cycles
 SCF Done:  E(RM062X) =  -462.177797517     A.U. after   10 cycles
 Optimization completed.
    -- Stationary point found.
 Normal termination of Gaussian 16 at Tue Jun 21 10:39:53 2022.

 --------------------------------------------------------------------
 #N Geom=AllCheck Guess=TCheck SCRF=Check GenChk RM062X/6-31G(d) Freq
 --------------------------------------------------------------------

 Structure from the checkpoint file:  "/tmp/Gau-3366796.chk"
 -------------------
 Title Card Required
 -------------------
 Charge =  0 Multiplicity = 1

                         Standard orientation:
 ---------------------------------------------------------------------
 Center     Atomic      Atomic             Coordinates (Angstroms)
 Number     Number       Type             X           Y           Z
 ---------------------------------------------------------------------
      1          6           0       -1.303938    1.128337    1.009288
      2          6           0       -0.219940    1.642456   -0.736804
      3          6           0        0.129669   -1.180381   -0.705184
      4          6           0       -1.406518   -0.249262    1.048597
      5          1           0       -0.692104    1.647131    1.738688
      6          1           0       -2.148685    1.681289    0.608350
      7          1           0       -0.847223   -0.847279    1.758677
      8          6           0        1.021130    1.074371   -0.537530
      9          6           0        1.179881   -0.331808   -0.465705
     10          1           0       -0.299740    2.725889   -0.742598
     11          1           0        0.264344   -2.242544   -0.528572
     12          1           0       -0.999016    1.128395   -1.293358
     13          1           0       -0.684516   -0.880813   -1.349053
     14          6           0       -2.474354   -0.893776    0.283519
     15          8           0       -3.119375   -0.324243   -0.579418
     16          1           0       -2.657923   -1.964723    0.504944
     17          8           0        2.324247   -0.917067    0.001728
     18          6           0        3.353873   -0.086213    0.486074
     19          1           0        4.141189   -0.755561    0.833321
     20          1           0        3.757336    0.560846   -0.302352
     21          1           0        3.013504    0.536470    1.323049
     22          1           0        1.835046    1.719041   -0.223108
 ---------------------------------------------------------------------

 SCF Done:  E(RM062X) =  -462.177797517     A.U. after    1 cycles

 The electronic state is 1-A.
 Alpha  occ. eigenvalues --  -19.66788 -19.61973 -10.62144 -10.61002 -10.60243
 Alpha  occ. eigenvalues --  -10.56723 -10.55987 -10.55789 -10.55037 -10.55030
 Alpha  occ. eigenvalues --   -1.18771  -1.14580  -0.92175  -0.86934  -0.84319
 Alpha  occ. eigenvalues --   -0.77902  -0.73478  -0.71727  -0.62229  -0.60751
 Alpha  occ. eigenvalues --   -0.59541  -0.57292  -0.55516  -0.54848  -0.50695
 Alpha  occ. eigenvalues --   -0.49640  -0.48109  -0.47598  -0.46769  -0.45438
 Alpha  occ. eigenvalues --   -0.44552  -0.43007  -0.42109  -0.39658  -0.37925
 Alpha  occ. eigenvalues --   -0.31308  -0.27541  -0.27223
 Alpha virt. eigenvalues --   -0.02023   0.02865   0.10968   0.13514   0.14778
 Alpha virt. eigenvalues --    0.15356   0.16215   0.17637   0.18333   0.19772
 Alpha virt. eigenvalues --    0.20599   0.21302   0.22131   0.22209   0.24184

 Mulliken charges:
               1
     1  C   -0.374886
     2  C   -0.391295
     3  C   -0.461360
     4  C   -0.168975
     5  H    0.177103
     6  H    0.212115
     7  H    0.171678
     8  C   -0.156394
     9  C    0.416921
    10  H    0.180056
    11  H    0.182544
    12  H    0.213698
    13  H    0.203627
    14  C    0.220057
    15  O   -0.455201
    16  H    0.123372
    17  O   -0.522875
    18  C   -0.240312
    19  H    0.188905
    20  H    0.162332
    21  H    0.156802
    22  H    0.162089
 Sum of Mulliken charges =   0.00000

 Dipole moment (field-independent basis, Debye):
    X=              3.1603    Y=              1.2442    Z=              1.8369  Tot=              3.8613
 Quadrupole moment (field-independent basis, Debye-Ang):
   XX=            -65.0575   YY=            -55.9296   ZZ=            -61.4534
   XY=              3.0723   XZ=             -1.0371   YZ=             -0.6190

  Exact polarizability:     125.291       3.894     100.498      -2.068      -1.223      70.116
 Approx polarizability:     150.749       2.908     138.669      -5.208      -1.969      94.236

 ******    1 imaginary frequencies (negative Signs) ******

                      1                      2                      3
                      A                      A                      A
 Frequencies --   -458.5922                52.7214                74.4861
 Red. masses --      8.6932                 3.1135                 4.2507
 Frc consts  --      1.0772                 0.0051                 0.0139
 IR Inten    --      7.4871                 0.9708                 1.9404

                      4                      5                      6
                      A                      A                      A
 Frequencies --    121.8408               133.7614               200.3603
 Red. masses --      6.8756                 5.4359                 3.0625
 Frc consts  --      0.0601                 0.0573                 0.0724
 IR Inten    --      8.3363                 2.1013                14.7865

                      7                      8                      9
                      A                      A                      A
 Frequencies --    230.2012               273.1127               292.6952
 Red. masses --      2.9119                 1.2313                 2.9596
 Frc consts  --      0.0909                 0.0541                 0.1494
 IR Inten    --      3.9248                 1.2998                 1.6477

                     10                     11                     12
                      A                      A                      A
 Frequencies --    320.5994               385.8799               410.3106
 Red. masses --      2.8101                 2.7258                 2.6051
 Frc consts  --      0.1702                 0.2391                 0.2584
 IR Inten    --     10.7891                 3.7439                 0.8383

                     13                     14                     15
                      A                      A                      A
 Frequencies --    448.5083               485.3714               574.4118
 Red. masses --      3.2223                 2.5010                 3.6052
 Frc consts  --      0.3819                 0.3471                 0.7009
 IR Inten    --      6.1210                 2.1055                 5.6765

                     16                     17                     18
                      A                      A                      A
 Frequencies --    597.8851               685.9103               764.5086
 Red. masses --      2.3059                 2.1461                 1.2721
 Frc consts  --      0.4857                 0.5949                 0.4381
 IR Inten    --      4.9147                12.4294                 4.6043

                     19                     20                     21
                      A                      A                      A
 Frequencies --    789.2559               821.2792               857.8396
 Red. masses --      1.2926                 1.5507                 2.6452
 Frc consts  --      0.4744                 0.6162                 1.1469
 IR Inten    --      5.4238                13.0996                24.5631

                     22                     23                     24
                      A                      A                      A
 Frequencies --    893.2398               953.1238               958.2373
 Red. masses --      1.2487                 1.4795                 1.2233
 Frc consts  --      0.5870                 0.7919                 0.6618
 IR Inten    --     20.4879                36.3754                11.0617

                     25                     26                     27
                      A                      A                      A
 Frequencies --    971.6271              1004.0741              1020.7280
 Red. masses --      1.4064                 1.7206                 1.2447
 Frc consts  --      0.7823                 1.0221                 0.7641
 IR Inten    --      6.0741                54.2889                11.4697

                     28                     29                     30
                      A                      A                      A
 Frequencies --   1031.5263              1088.2934              1100.5884
 Red. masses --      1.7225                 1.2630                 1.2501
 Frc consts  --      1.0799                 0.8813                 0.8922
 IR Inten    --      0.9625                20.4159                 5.3253

                     31                     32                     33
                      A                      A                      A
 Frequencies --   1114.9831              1182.5270              1191.9607
 Red. masses --      1.3865                 3.6718                 1.3676
 Frc consts  --      1.0156                 3.0252                 1.1448
 IR Inten    --      1.4278                59.9289                 8.3060

                     34                     35                     36
                      A                      A                      A
 Frequencies --   1224.9266              1269.2024              1309.4246
 Red. masses --      1.3907                 1.4967                 1.4718
 Frc consts  --      1.2294                 1.4205                 1.4868
 IR Inten    --      0.8001                12.3781                59.4279

                     37                     38                     39
                      A                      A                      A
 Frequencies --   1352.3458              1424.5342              1431.8979
 Red. masses --      2.9226                 1.2993                 1.2307
 Frc consts  --      3.1492                 1.5535                 1.4868
 IR Inten    --    177.0080                25.2566                 7.9347

                     40                     41                     42
                      A                      A                      A
 Frequencies --   1453.5226              1501.3675              1522.7931
 Red. masses --      1.4464                 1.2802                 1.6975
 Frc consts  --      1.8005                 1.7003                 2.3192
 IR Inten    --     39.4441                29.4182                35.6521

                     43                     44                     45
                      A                      A                      A
 Frequencies --   1530.7886              1543.1199              1559.9349
 Red. masses --      1.0474                 1.0503                 1.7823
 Frc consts  --      1.4461                 1.4735                 2.5553
 IR Inten    --      6.0365                19.0804                96.7044

                     46                     47                     48
                      A                      A                      A
 Frequencies --   1626.4880              1655.6115              1814.7199
 Red. masses --      3.1903                 3.3945                 8.6695
 Frc consts  --      4.9726                 5.4820                16.8215
 IR Inten    --      4.2198                94.9765               207.4899

                     49                     50                     51
                      A                      A                      A
 Frequencies --   2987.1792              3058.2283              3121.9539
 Red. masses --      1.0852                 1.0354                 1.1062
 Frc consts  --      5.7055                 5.7056                 6.3524
 IR Inten    --    141.5630                41.7415                40.0526

                     52                     53                     54
                      A                      A                      A
 Frequencies --   3183.7758              3193.2149              3196.4179
 Red. masses --      1.0591                 1.0998                 1.0563
 Frc consts  --      6.3253                 6.6070                 6.3588
 IR Inten    --      2.7013                23.1215                 3.0631

                     55                     56                     57
                      A                      A                      A
 Frequencies --   3223.7883              3241.4118              3254.2567
 Red. masses --      1.0601                 1.0917                 1.0933
 Frc consts  --      6.4916                 6.7580                 6.8216
 IR Inten    --      0.6173                 2.8115                 4.1699

                     58                     59                     60
                      A                      A                      A
 Frequencies --   3268.0743              3289.4780              3329.4503
 Red. masses --      1.1140                 1.1163                 1.1153
 Frc consts  --      7.0103                 7.1167                 7.2840
 IR Inten    --      5.7759                 3.0132                 0.7076

 - Thermochemistry -
 -------------------
 Temperature   298.150 Kelvin.  Pressure   1.00000 Atm.
 Atom     1 has atomic number  6 and mass  12.00000

 Molecular mass:   140.08373 amu.
 Principal axes and moments of inertia in atomic units:
                           1         2         3
     Eigenvalues --   717.145552321.338892561.08222
           X            0.99996   0.00687   0.00563
           Y           -0.00686   0.99998  -0.00156
           Z           -0.00564   0.00152   0.99998
 This molecule is an asymmetric top.
 Rotational symmetry number  1.
 Warning -- assumption of classical behavior for rotation
           may cause significant error
 Rotational temperatures (Kelvin)      0.12078     0.03731     0.03382
 Rotational constants (GHZ):           2.51656     0.77746     0.70468
    1 imaginary frequencies ignored.
 Zero-point vibrational energy     488074.9 (Joules/Mol)
                                  116.65271 (Kcal/Mol)
 Warning -- explicit consideration of  15 degrees of freedom as
           vibrations may cause significant error
 Vibrational temperatures:     75.85   107.17   175.30   192.45   288.27
          (Kelvin)            331.21   392.95   421.12   461.27   555.20
                              590.35   645.30   698.34   826.45   860.22
                              986.87  1099.96  1135.56  1181.64  1234.24
                             1285.17  1371.33  1378.69  1397.95  1444.64
                             1468.60  1484.14  1565.81  1583.50  1604.21
                             1701.39  1714.97  1762.40  1826.10  1883.97
                             1945.72  2049.59  2060.18  2091.29  2160.13
                             2190.96  2202.46  2220.21  2244.40  2340.15
                             2382.06  2610.98  4297.88  4400.11  4491.80
                             4580.74  4594.32  4598.93  4638.31  4663.67
                             4682.15  4702.03  4732.83  4790.34

 Zero-point correction=                           0.185898 (Hartree/Particle)
 Thermal correction to Energy=                    0.196440
 Thermal correction to Enthalpy=                  0.197384
 Thermal correction to Gibbs Free Energy=         0.149696
 Sum of electronic and zero-point Energies=           -461.991900
 Sum of electronic and thermal Energies=              -461.981358
 Sum of electronic and thermal Enthalpies=            -461.980414
 Sum of electronic and thermal Free Energies=         -462.028102

                     E (Thermal)             CV                S
                      KCal/Mol        Cal/Mol-Kelvin    Cal/Mol-Kelvin
 Total                  123.268             39.027            100.368
 Electronic               0.000              0.000              0.000
 Translational            0.889              2.981             40.723
 Rotational               0.889              2.981             29.834
 Vibrational            121.490             33.066             29.811
 Vibration     1          0.596              1.977              4.713
 Vibration     2          0.599              1.966              4.031
 Vibration     3          0.609              1.931              3.071
 Vibration     4          0.613              1.920              2.891
 Vibration     5          0.638              1.839              2.130
 Vibration     6          0.652              1.795              1.877
 Vibration     7          0.676              1.723              1.576
 Vibration     8          0.688              1.687              1.458
 Vibration     9          0.706              1.634              1.307
 Vibration    10          0.755              1.500              1.016
 Vibration    11          0.774              1.448              0.926
 Vibration    12          0.808              1.364              0.800
 Vibration    13          0.841              1.282              0.696
 Vibration    14          0.931              1.087              0.496
 Vibration    15          0.956              1.036              0.453

                           ! Non-Optimized Parameters !
 Normal termination of Gaussian 16 at Tue Jun 21 10:41:24 2022.
