 Gaussian 16, Revision C.01,
 Gaussian 16:  AS64L-G16RevC.01  3-Jul-2019

 -------------------------------------------------
 # opt=(calcfc,ts,noeigentest) freq 6-31g(d) m062x
 -------------------------------------------------

 -------------------
 Title Card Required
 -------------------
 Symbolic Z-matrix:
 Charge =  0 Multiplicity = 1

 SCF Done:  E(RM062X) =  -462.158530815     A.U. after   17 cycles
 SCF Done:  E(RM062X) =  -462.178484310     A.U. after   17 cycles
 SCF Done:  E(RM062X) =  -462.182592036     A.U. after   15 cycles
 SCF Done:  E(RM062X) =  -462.182834816     A.U. after   15 cycles
 SCF Done:  E(RM062X) =  -462.182914613     A.U. after   14 cycles
 SCF Done:  E(RM062X) =  -462.179843852     A.U. after   15 cycles
 SCF Done:  E(RM062X) =  -462.182460202     A.U. after   14 cycles
 SCF Done:  E(RM062X) =  -462.181786506     A.U. after   15 cycles
 SCF Done:  E(RM062X) =  -462.182883386     A.U. after   15 cycles
 SCF Done:  E(RM062X) =  -462.182933301     A.U. after   14 cycles
 SCF Done:  E(RM062X) =  -462.179242454     A.U. after   15 cycles
 SCF Done:  E(RM062X) =  -462.182186297     A.U. after   17 cycles
 SCF Done:  E(RM062X) =  -462.181446949     A.U. after   15 cycles
 SCF Done:  E(RM062X) =  -462.182770924     A.U. after   14 cycles
 SCF Done:  E(RM062X) =  -462.182950463     A.U. after   14 cycles
 SCF Done:  E(RM062X) =  -462.182960792     A.U. after   13 cycles
 SCF Done:  E(RM062X) =  -462.182962043     A.U. after   10 cycles
 SCF Done:  E(RM062X) =  -462.182954519     A.U. after   12 cycles
 SCF Done:  E(RM062X) =  -462.182962365     A.U. after   11 cycles
 Optimization completed.
    -- Stationary point found.
 Normal termination of Gaussian 16 at Tue Jun 21 10:41:24 2022.

 --------------------------------------------------------------------
 #N Geom=AllCheck Guess=TCheck SCRF=Check GenChk RM062X/6-31G(d) Freq
 --------------------------------------------------------------------

 Structure from the checkpoint file:  "DATS_13_endo_ii.chk"
 -------------------
 Title Card Required
 -------------------
 Charge =  0 Multiplicity = 1

                         Standard orientation:
 ---------------------------------------------------------------------
 Center     Atomic      Atomic             Coordinates (Angstroms)
 Number     Number       Type             X           Y           Z
 ---------------------------------------------------------------------
      1          6           0        2.324050   -0.191466   -0.077619
      2          6           0        1.539927    1.683066   -0.183860
      3          6           0       -0.428355    0.380076    1.412398
      4          6           0        1.499250   -1.014764    0.680831
      5          1           0        2.305293   -0.352203   -1.150495
      6          1           0        3.276765    0.123548    0.338552
      7          1           0        1.705387   -1.237318    1.722774
      8          6           0        0.235956    1.519068   -0.621214
      9          6           0       -0.739738    0.874380    0.167668
     10          1           0        2.248984    2.161249   -0.853637
     11          1           0       -1.118996   -0.230256    1.981923
     12          1           0        1.735756    1.867674    0.867861
     13          1           0        0.382782    0.821161    1.972439
     14          6           0        0.458056   -1.770504   -0.005272
     15          8           0        0.165743   -1.599537   -1.176922
     16          1           0       -0.091309   -2.512135    0.612167
     17          8           0       -1.893129    0.607680   -0.499562
     18          6           0       -2.800760   -0.283150    0.103604
     19          1           0       -3.642731   -0.369509   -0.582755
     20          1           0       -2.344986   -1.271142    0.242749
     21          1           0       -3.155629    0.097036    1.070153
     22          1           0       -0.012549    1.656511   -1.669078
 ---------------------------------------------------------------------

 SCF Done:  E(RM062X) =  -462.182962365     A.U. after    1 cycles

 The electronic state is 1-A.
 Alpha  occ. eigenvalues --  -19.66203 -19.60993 -10.61381 -10.60739 -10.59257
 Alpha  occ. eigenvalues --  -10.56764 -10.55856 -10.55581 -10.55125 -10.55085
 Alpha  occ. eigenvalues --   -1.18462  -1.13584  -0.92158  -0.86687  -0.82626
 Alpha  occ. eigenvalues --   -0.80081  -0.73172  -0.70052  -0.62514  -0.60014
 Alpha  occ. eigenvalues --   -0.58821  -0.57432  -0.55159  -0.54388  -0.51016
 Alpha  occ. eigenvalues --   -0.49393  -0.47664  -0.46944  -0.46190  -0.45715
 Alpha  occ. eigenvalues --   -0.43615  -0.42235  -0.41200  -0.39669  -0.37533
 Alpha  occ. eigenvalues --   -0.30629  -0.28142  -0.26359
 Alpha virt. eigenvalues --   -0.01831   0.04756   0.10365   0.12628   0.14489
 Alpha virt. eigenvalues --    0.15490   0.16521   0.18404   0.19014   0.19624
 Alpha virt. eigenvalues --    0.20113   0.21434   0.22677   0.23411   0.25559

 Mulliken charges:
               1
     1  C   -0.371302
     2  C   -0.396523
     3  C   -0.470987
     4  C   -0.183561
     5  H    0.215073
     6  H    0.179366
     7  H    0.162160
     8  C   -0.118151
     9  C    0.427597
    10  H    0.186107
    11  H    0.175515
    12  H    0.187164
    13  H    0.178536
    14  C    0.236992
    15  O   -0.457353
    16  H    0.105702
    17  O   -0.512798
    18  C   -0.237490
    19  H    0.188835
    20  H    0.164312
    21  H    0.152132
    22  H    0.188673
 Sum of Mulliken charges =  -0.00000

 Dipole moment (field-independent basis, Debye):
    X=              0.7162    Y=              0.7942    Z=              2.9156  Tot=              3.1055
 Quadrupole moment (field-independent basis, Debye-Ang):
   XX=            -52.5728   YY=            -62.4861   ZZ=            -60.4456
   XY=              4.8661   XZ=             -1.1867   YZ=             -4.6460

  Exact polarizability:     111.152       4.392      92.650      -1.507      -7.920      84.081
 Approx polarizability:     137.116      -0.971     124.561       0.469     -16.248     122.245

 ******    1 imaginary frequencies (negative Signs) ******

                      1                      2                      3
                      A                      A                      A
 Frequencies --   -501.9904                57.4133                96.5480
 Red. masses --      8.6973                 4.0108                 4.2868
 Frc consts  --      1.2913                 0.0078                 0.0235
 IR Inten    --     12.5161                 3.2849                 4.4061

                      4                      5                      6
                      A                      A                      A
 Frequencies --    141.3569               146.7766               219.5517
 Red. masses --      5.2746                 4.6485                 2.5318
 Frc consts  --      0.0621                 0.0590                 0.0719
 IR Inten    --      3.4722                 2.2189                 2.5192

                      7                      8                      9
                      A                      A                      A
 Frequencies --    266.0893               289.9204               303.0857
 Red. masses --      2.2459                 1.4897                 2.9467
 Frc consts  --      0.0937                 0.0738                 0.1595
 IR Inten    --      7.9094                 1.7866                 3.0684

                     10                     11                     12
                      A                      A                      A
 Frequencies --    324.5517               387.4170               419.3984
 Red. masses --      3.2817                 2.8834                 2.8366
 Frc consts  --      0.2037                 0.2550                 0.2940
 IR Inten    --      9.3006                 0.8333                 3.8740

                     13                     14                     15
                      A                      A                      A
 Frequencies --    470.4434               515.1585               550.8545
 Red. masses --      3.3294                 3.1165                 2.3737
 Frc consts  --      0.4341                 0.4873                 0.4244
 IR Inten    --      8.0817                 1.2606                 2.3039

                     16                     17                     18
                      A                      A                      A
 Frequencies --    608.6587               695.1964               742.2460
 Red. masses --      2.4563                 2.2858                 1.1491
 Frc consts  --      0.5361                 0.6509                 0.3730
 IR Inten    --      2.5768                 3.7348                 3.0998

                     19                     20                     21
                      A                      A                      A
 Frequencies --    788.4571               823.2276               872.1923
 Red. masses --      1.2441                 1.7151                 1.3961
 Frc consts  --      0.4557                 0.6848                 0.6257
 IR Inten    --     10.4309                19.3941                42.0468

                     22                     23                     24
                      A                      A                      A
 Frequencies --    891.4096               935.6635               968.5289
 Red. masses --      2.2585                 1.3380                 1.3476
 Frc consts  --      1.0573                 0.6902                 0.7448
 IR Inten    --     16.6413                13.5842                 5.1231

                     25                     26                     27
                      A                      A                      A
 Frequencies --    975.7526              1005.5776              1021.2152
 Red. masses --      1.3253                 1.6562                 1.5125
 Frc consts  --      0.7434                 0.9867                 0.9293
 IR Inten    --     12.1458                47.3353                 5.9329

                     28                     29                     30
                      A                      A                      A
 Frequencies --   1033.6967              1095.4839              1109.4789
 Red. masses --      1.5155                 1.2218                 1.3527
 Frc consts  --      0.9541                 0.8639                 0.9810
 IR Inten    --      1.0810                10.4752                 4.3342

                     31                     32                     33
                      A                      A                      A
 Frequencies --   1120.9503              1154.9955              1190.9031
 Red. masses --      1.3132                 3.6795                 1.2812
 Frc consts  --      0.9722                 2.8920                 1.0706
 IR Inten    --      7.1957                58.2466                 1.0525

                     34                     35                     36
                      A                      A                      A
 Frequencies --   1237.3180              1258.4297              1290.5415
 Red. masses --      1.4247                 1.4824                 1.4472
 Frc consts  --      1.2851                 1.3831                 1.4201
 IR Inten    --      5.6802                 6.7530                18.7837

                     37                     38                     39
                      A                      A                      A
 Frequencies --   1364.2772              1423.2679              1435.9728
 Red. masses --      3.0525                 1.2599                 1.3183
 Frc consts  --      3.3475                 1.5038                 1.6016
 IR Inten    --    135.2904                11.1553                42.9920

                     40                     41                     42
                      A                      A                      A
 Frequencies --   1449.7956              1499.2315              1523.5967
 Red. masses --      1.4677                 1.3475                 1.6250
 Frc consts  --      1.8176                 1.7845                 2.2225
 IR Inten    --     37.2773                24.1046                43.9886

                     43                     44                     45
                      A                      A                      A
 Frequencies --   1527.0735              1534.2767              1553.9170
 Red. masses --      1.0468                 1.0842                 1.6843
 Frc consts  --      1.4383                 1.5037                 2.3961
 IR Inten    --      7.8868                 9.3084                22.9054

                     46                     47                     48
                      A                      A                      A
 Frequencies --   1626.9650              1643.0297              1803.4768
 Red. masses --      3.1713                 3.3241                 8.5182
 Frc consts  --      4.9459                 5.2871                16.3237
 IR Inten    --     41.3176                74.7333               152.3319

                     49                     50                     51
                      A                      A                      A
 Frequencies --   2965.0022              3058.7885              3124.4165
 Red. masses --      1.0844                 1.0356                 1.1053
 Frc consts  --      5.6170                 5.7087                 6.3572
 IR Inten    --    138.3069                39.9577                31.5645

                     52                     53                     54
                      A                      A                      A
 Frequencies --   3186.8139              3191.3307              3198.4665
 Red. masses --      1.0576                 1.0570                 1.1000
 Frc consts  --      6.3281                 6.3426                 6.6300
 IR Inten    --      0.4066                 9.3899                20.5976

                     55                     56                     57
                      A                      A                      A
 Frequencies --   3238.9313              3239.4864              3245.1488
 Red. masses --      1.0924                 1.0917                 1.0606
 Frc consts  --      6.7522                 6.7500                 6.5807
 IR Inten    --      2.6808                 3.4283                 0.7847

                     58                     59                     60
                      A                      A                      A
 Frequencies --   3267.5775              3281.0761              3329.2358
 Red. masses --      1.1139                 1.1158                 1.1144
 Frc consts  --      7.0071                 7.0773                 7.2773
 IR Inten    --      4.9603                 1.5158                 1.6476

 - Thermochemistry -
 -------------------
 Temperature   298.150 Kelvin.  Pressure   1.00000 Atm.
 Atom     1 has atomic number  6 and mass  12.00000

 Molecular mass:   140.08373 amu.
 Principal axes and moments of inertia in atomic units:
                           1         2         3
     Eigenvalues --   968.630611506.280781907.92512
           X            0.99764   0.06785  -0.01043
           Y           -0.06826   0.99666  -0.04487
           Z            0.00735   0.04548   0.99894
 This molecule is an asymmetric top.
 Rotational symmetry number  1.
 Warning -- assumption of classical behavior for rotation
           may cause significant error
 Rotational temperatures (Kelvin)      0.08942     0.05750     0.04540
 Rotational constants (GHZ):           1.86319     1.19814     0.94592
    1 imaginary frequencies ignored.
 Zero-point vibrational energy     488792.0 (Joules/Mol)
                                  116.82409 (Kcal/Mol)
 Warning -- explicit consideration of  15 degrees of freedom as
           vibrations may cause significant error
 Vibrational temperatures:     82.60   138.91   203.38   211.18   315.89
          (Kelvin)            382.84   417.13   436.07   466.96   557.41
                              603.42   676.86   741.20   792.56   875.72
                             1000.23  1067.93  1134.41  1184.44  1254.89
                             1282.54  1346.21  1393.50  1403.89  1446.80
                             1469.30  1487.26  1576.16  1596.29  1612.80
                             1661.78  1713.44  1780.22  1810.60  1856.80
                             1962.89  2047.77  2066.04  2085.93  2157.06
                             2192.12  2197.12  2207.48  2235.74  2340.84
                             2363.95  2594.80  4265.98  4400.91  4495.34
                             4585.11  4591.61  4601.88  4660.10  4660.90
                             4669.05  4701.32  4720.74  4790.03

 Zero-point correction=                           0.186171 (Hartree/Particle)
 Thermal correction to Energy=                    0.196442
 Thermal correction to Enthalpy=                  0.197386
 Thermal correction to Gibbs Free Energy=         0.150796
 Sum of electronic and zero-point Energies=           -461.996791
 Sum of electronic and thermal Energies=              -461.986521
 Sum of electronic and thermal Enthalpies=            -461.985576
 Sum of electronic and thermal Free Energies=         -462.032167

                     E (Thermal)             CV                S
                      KCal/Mol        Cal/Mol-Kelvin    Cal/Mol-Kelvin
 Total                  123.269             38.738             98.058
 Electronic               0.000              0.000              0.000
 Translational            0.889              2.981             40.723
 Rotational               0.889              2.981             29.411
 Vibrational            121.492             32.776             27.924
 Vibration     1          0.596              1.975              4.544
 Vibration     2          0.603              1.952              3.523
 Vibration     3          0.615              1.912              2.785
 Vibration     4          0.617              1.906              2.714
 Vibration     5          0.647              1.811              1.963
 Vibration     6          0.672              1.735              1.621
 Vibration     7          0.686              1.692              1.474
 Vibration     8          0.695              1.668              1.400
 Vibration     9          0.709              1.626              1.287
 Vibration    10          0.756              1.497              1.010
 Vibration    11          0.782              1.428              0.894
 Vibration    12          0.827              1.316              0.736
 Vibration    13          0.870              1.216              0.621
 Vibration    14          0.906              1.138              0.542
 Vibration    15          0.968              1.013              0.435

                           ! Non-Optimized Parameters !
 Normal termination of Gaussian 16 at Tue Jun 21 10:43:00 2022.
