 Gaussian 16, Revision C.01,
 Gaussian 16:  AS64L-G16RevC.01  3-Jul-2019

 -------------------------------------------------
 # opt=(calcfc,ts,noeigentest) freq 6-31g(d) m062x
 -------------------------------------------------

 -------------------
 Title Card Required
 -------------------
 Symbolic Z-matrix:
 Charge =  0 Multiplicity = 1

 SCF Done:  E(RM062X) =  -462.167195922     A.U. after   16 cycles
 SCF Done:  E(RM062X) =  -462.175801960     A.U. after   16 cycles
 SCF Done:  E(RM062X) =  -462.177306166     A.U. after   16 cycles
 SCF Done:  E(RM062X) =  -462.177376256     A.U. after   13 cycles
 SCF Done:  E(RM062X) =  -462.177379983     A.U. after   10 cycles
 SCF Done:  E(RM062X) =  -462.175391396     A.U. after   15 cycles
 SCF Done:  E(RM062X) =  -462.177112619     A.U. after   14 cycles
 SCF Done:  E(RM062X) =  -462.177116451     A.U. after   14 cycles
 SCF Done:  E(RM062X) =  -462.177348303     A.U. after   13 cycles
 SCF Done:  E(RM062X) =  -462.177380274     A.U. after   13 cycles
 SCF Done:  E(RM062X) =  -462.177380643     A.U. after   10 cycles
 SCF Done:  E(RM062X) =  -462.177380935     A.U. after    8 cycles
 SCF Done:  E(RM062X) =  -462.177380940     A.U. after    7 cycles
 SCF Done:  E(RM062X) =  -462.177380956     A.U. after    7 cycles
 Optimization completed.
    -- Stationary point found.
 Normal termination of Gaussian 16 at Tue Jun 21 10:39:39 2022.

 --------------------------------------------------------------------
 #N Geom=AllCheck Guess=TCheck SCRF=Check GenChk RM062X/6-31G(d) Freq
 --------------------------------------------------------------------

 Structure from the checkpoint file:  "DATS_13_exo_iv.chk"
 -------------------
 Title Card Required
 -------------------
 Charge =  0 Multiplicity = 1

                         Standard orientation:
 ---------------------------------------------------------------------
 Center     Atomic      Atomic             Coordinates (Angstroms)
 Number     Number       Type             X           Y           Z
 ---------------------------------------------------------------------
      1          6           0       -1.490007    1.352767    0.789711
      2          6           0       -0.049489    2.268877   -0.488414
      3          6           0        0.285560   -0.518796   -0.868519
      4          6           0       -1.398362   -0.029297    0.683097
      5          1           0       -1.126310    1.845273    1.683311
      6          1           0       -2.321310    1.852859    0.296212
      7          1           0       -0.870406   -0.616183    1.427331
      8          6           0        1.130946    1.636316   -0.156594
      9          6           0        1.290201    0.244476   -0.316221
     10          1           0       -0.160608    3.326002   -0.264902
     11          1           0        0.303192   -1.602052   -0.871271
     12          1           0       -0.636133    1.928461   -1.334963
     13          1           0       -0.360412   -0.066611   -1.608945
     14          6           0       -2.369778   -0.758239   -0.142152
     15          8           0       -2.547198   -1.956258   -0.123550
     16          1           0       -2.958173   -0.107039   -0.830680
     17          8           0        2.369797   -0.270009    0.339237
     18          6           0        2.566580   -1.664118    0.258633
     19          1           0        3.518718   -1.866303    0.749042
     20          1           0        1.769739   -2.211983    0.776414
     21          1           0        2.610373   -1.998522   -0.785109
     22          1           0        1.856637    2.134320    0.480818
 ---------------------------------------------------------------------

 SCF Done:  E(RM062X) =  -462.177380956     A.U. after    1 cycles

 The electronic state is 1-A.
 Alpha  occ. eigenvalues --  -19.67023 -19.62169 -10.62489 -10.61102 -10.59990
 Alpha  occ. eigenvalues --  -10.56978 -10.56357 -10.55982 -10.55626 -10.55361
 Alpha  occ. eigenvalues --   -1.19048  -1.14978  -0.92647  -0.87572  -0.82915
 Alpha  occ. eigenvalues --   -0.80615  -0.72412  -0.70537  -0.64216  -0.62137
 Alpha  occ. eigenvalues --   -0.59285  -0.56478  -0.54896  -0.53226  -0.52996
 Alpha  occ. eigenvalues --   -0.50923  -0.47659  -0.47207  -0.46857  -0.46195
 Alpha  occ. eigenvalues --   -0.43870  -0.43462  -0.43034  -0.40390  -0.37909
 Alpha  occ. eigenvalues --   -0.31402  -0.28438  -0.26922
 Alpha virt. eigenvalues --   -0.01571   0.03523   0.09389   0.11937   0.13943
 Alpha virt. eigenvalues --    0.14849   0.16695   0.17132   0.18319   0.19291
 Alpha virt. eigenvalues --    0.20349   0.20766   0.21330   0.22776   0.24695

 Mulliken charges:
               1
     1  C   -0.395809
     2  C   -0.380846
     3  C   -0.469519
     4  C   -0.163868
     5  H    0.192531
     6  H    0.179500
     7  H    0.181475
     8  C   -0.140620
     9  C    0.415729
    10  H    0.181224
    11  H    0.198057
    12  H    0.182285
    13  H    0.184035
    14  C    0.248739
    15  O   -0.444666
    16  H    0.103058
    17  O   -0.521036
    18  C   -0.243394
    19  H    0.187541
    20  H    0.166320
    21  H    0.163237
    22  H    0.176024
 Sum of Mulliken charges =  -0.00000

 Dipole moment (field-independent basis, Debye):
    X=              1.5159    Y=              2.1377    Z=             -0.1109  Tot=              2.6230
 Quadrupole moment (field-independent basis, Debye-Ang):
   XX=            -65.3119   YY=            -59.7926   ZZ=            -59.8927
   XY=            -12.4258   XZ=              1.5910   YZ=              0.1270

  Exact polarizability:     115.115       1.908     113.820       2.030       2.472      66.860
 Approx polarizability:     143.292      10.104     154.389      -0.584       5.126      86.931

 ******    1 imaginary frequencies (negative Signs) ******

                      1                      2                      3
                      A                      A                      A
 Frequencies --   -516.5908                61.7567                81.0556
 Red. masses --      8.7594                 4.4290                 3.2194
 Frc consts  --      1.3773                 0.0100                 0.0125
 IR Inten    --      8.0520                 2.4833                 6.3929

                      4                      5                      6
                      A                      A                      A
 Frequencies --    113.1102               147.7814               217.5763
 Red. masses --      5.6462                 3.9733                 3.6700
 Frc consts  --      0.0426                 0.0511                 0.1024
 IR Inten    --      1.1509                 4.2280                 4.1776

                      7                      8                      9
                      A                      A                      A
 Frequencies --    228.6012               285.5293               289.1988
 Red. masses --      2.3698                 1.7622                 1.5383
 Frc consts  --      0.0730                 0.0846                 0.0758
 IR Inten    --      5.8724                 0.8680                 1.2917

                     10                     11                     12
                      A                      A                      A
 Frequencies --    344.8124               384.0171               406.6865
 Red. masses --      2.7302                 2.9721                 3.6579
 Frc consts  --      0.1913                 0.2582                 0.3565
 IR Inten    --      9.4379                 1.3190                 8.1625

                     13                     14                     15
                      A                      A                      A
 Frequencies --    429.3730               506.9786               549.1883
 Red. masses --      2.9920                 3.3541                 2.2488
 Frc consts  --      0.3250                 0.5079                 0.3996
 IR Inten    --      4.9118                 0.1887                 1.3249

                     16                     17                     18
                      A                      A                      A
 Frequencies --    583.6875               609.0112               777.7469
 Red. masses --      3.4678                 2.6391                 1.3397
 Frc consts  --      0.6961                 0.5767                 0.4775
 IR Inten    --     13.7438                 2.7693                 5.7812

                     19                     20                     21
                      A                      A                      A
 Frequencies --    805.2585               829.2079               877.7740
 Red. masses --      1.2128                 1.5086                 1.2804
 Frc consts  --      0.4634                 0.6111                 0.5812
 IR Inten    --      0.6626                13.1210                22.6776

                     22                     23                     24
                      A                      A                      A
 Frequencies --    888.6942               933.1746               953.4490
 Red. masses --      2.1521                 1.3018                 1.1778
 Frc consts  --      1.0014                 0.6679                 0.6308
 IR Inten    --     21.3049                15.5429                 9.4779

                     25                     26                     27
                      A                      A                      A
 Frequencies --    977.4233              1010.0026              1025.4634
 Red. masses --      1.3341                 1.2877                 1.5701
 Frc consts  --      0.7509                 0.7739                 0.9728
 IR Inten    --      8.0158                 4.0578                21.8092

                     28                     29                     30
                      A                      A                      A
 Frequencies --   1043.3913              1068.9324              1103.2662
 Red. masses --      1.3238                 1.2110                 1.4370
 Frc consts  --      0.8491                 0.8153                 1.0306
 IR Inten    --     18.0320                26.3381                 0.3020

                     31                     32                     33
                      A                      A                      A
 Frequencies --   1146.9134              1186.7001              1193.7280
 Red. masses --      4.3617                 1.7522                 1.2771
 Frc consts  --      3.3804                 1.4538                 1.0722
 IR Inten    --     58.8699               103.8035                 1.3674

                     34                     35                     36
                      A                      A                      A
 Frequencies --   1235.6206              1264.7278              1284.7175
 Red. masses --      1.4296                 1.6758                 1.5006
 Frc consts  --      1.2860                 1.5793                 1.4592
 IR Inten    --      6.8315                 7.7390                15.4333

                     37                     38                     39
                      A                      A                      A
 Frequencies --   1362.1224              1387.8863              1434.1843
 Red. masses --      2.7890                 1.4653                 1.3341
 Frc consts  --      3.0489                 1.6629                 1.6168
 IR Inten    --    147.3985                19.3405                46.0373

                     40                     41                     42
                      A                      A                      A
 Frequencies --   1466.2919              1501.1946              1521.4620
 Red. masses --      1.3376                 1.3249                 1.3562
 Frc consts  --      1.6945                 1.7592                 1.8497
 IR Inten    --      8.5630                18.8093                37.2197

                     43                     44                     45
                      A                      A                      A
 Frequencies --   1528.4334              1543.7919              1560.8880
 Red. masses --      1.1771                 1.0699                 1.5589
 Frc consts  --      1.6202                 1.5024                 2.2377
 IR Inten    --      7.5846                18.5231                16.3059

                     46                     47                     48
                      A                      A                      A
 Frequencies --   1626.8063              1646.8212              1852.7985
 Red. masses --      3.1716                 3.3568                10.1174
 Frc consts  --      4.9453                 5.3637                20.4633
 IR Inten    --     21.2641                79.7748               357.2297

                     49                     50                     51
                      A                      A                      A
 Frequencies --   2917.4062              3061.3706              3125.1614
 Red. masses --      1.0827                 1.0348                 1.1063
 Frc consts  --      5.4295                 5.7139                 6.3660
 IR Inten    --    115.5351                34.7357                32.9416

                     52                     53                     54
                      A                      A                      A
 Frequencies --   3182.5377              3197.2061              3197.3450
 Red. masses --      1.0612                 1.0912                 1.0667
 Frc consts  --      6.3327                 6.5720                 6.4252
 IR Inten    --      1.7295                11.4966                17.0446

                     55                     56                     57
                      A                      A                      A
 Frequencies --   3226.1985              3236.5678              3240.8193
 Red. masses --      1.0915                 1.0588                 1.0916
 Frc consts  --      6.6938                 6.5349                 6.7547
 IR Inten    --      0.9297                 0.5894                 2.2070

                     58                     59                     60
                      A                      A                      A
 Frequencies --   3274.6788              3283.9939              3317.0342
 Red. masses --      1.1151                 1.1117                 1.1161
 Frc consts  --      7.0453                 7.0637                 7.2355
 IR Inten    --      5.6788                 4.1974                 1.5487

 - Thermochemistry -
 -------------------
 Temperature   298.150 Kelvin.  Pressure   1.00000 Atm.
 Atom     1 has atomic number  6 and mass  12.00000

 Molecular mass:   140.08373 amu.
 Principal axes and moments of inertia in atomic units:
                           1         2         3
     Eigenvalues --  1088.757971834.690392619.44283
           X            0.99567  -0.09272   0.00621
           Y            0.09271   0.99569   0.00119
           Z           -0.00629  -0.00061   0.99998
 This molecule is an asymmetric top.
 Rotational symmetry number  1.
 Warning -- assumption of classical behavior for rotation
           may cause significant error
 Rotational temperatures (Kelvin)      0.07955     0.04721     0.03307
 Rotational constants (GHZ):           1.65761     0.98368     0.68898
    1 imaginary frequencies ignored.
 Zero-point vibrational energy     487702.9 (Joules/Mol)
                                  116.56379 (Kcal/Mol)
 Warning -- explicit consideration of  16 degrees of freedom as
           vibrations may cause significant error
 Vibrational temperatures:     88.85   116.62   162.74   212.62   313.04
          (Kelvin)            328.91   410.81   416.09   496.11   552.51
                              585.13   617.77   729.43   790.16   839.80
                              876.23  1119.00  1158.59  1193.05  1262.92
                             1278.63  1342.63  1371.80  1406.29  1453.17
                             1475.41  1501.21  1537.96  1587.35  1650.15
                             1707.40  1717.51  1777.78  1819.66  1848.42
                             1959.79  1996.86  2063.47  2109.67  2159.88
                             2189.04  2199.07  2221.17  2245.77  2340.61
                             2369.41  2665.76  4197.50  4404.63  4496.41
                             4578.96  4600.07  4600.27  4641.78  4656.70
                             4662.82  4711.53  4724.93  4772.47

 Zero-point correction=                           0.185756 (Hartree/Particle)
 Thermal correction to Energy=                    0.196246
 Thermal correction to Enthalpy=                  0.197190
 Thermal correction to Gibbs Free Energy=         0.149721
 Sum of electronic and zero-point Energies=           -461.991625
 Sum of electronic and thermal Energies=              -461.981135
 Sum of electronic and thermal Enthalpies=            -461.980191
 Sum of electronic and thermal Free Energies=         -462.027660

                     E (Thermal)             CV                S
                      KCal/Mol        Cal/Mol-Kelvin    Cal/Mol-Kelvin
 Total                  123.146             39.087             99.907
 Electronic               0.000              0.000              0.000
 Translational            0.889              2.981             40.723
 Rotational               0.889              2.981             30.038
 Vibrational            121.368             33.125             29.147
 Vibration     1          0.597              1.973              4.400
 Vibration     2          0.600              1.962              3.865
 Vibration     3          0.607              1.939              3.215
 Vibration     4          0.617              1.905              2.701
 Vibration     5          0.646              1.814              1.979
 Vibration     6          0.651              1.797              1.890
 Vibration     7          0.683              1.701              1.500
 Vibration     8          0.686              1.694              1.479
 Vibration     9          0.723              1.586              1.190
 Vibration    10          0.753              1.504              1.023
 Vibration    11          0.771              1.456              0.938
 Vibration    12          0.791              1.406              0.861
 Vibration    13          0.862              1.235              0.641
 Vibration    14          0.904              1.141              0.546
 Vibration    15          0.941              1.067              0.479
 Vibration    16          0.968              1.013              0.434

 Optimization completed.
    -- Stationary point found.
 Normal termination of Gaussian 16 at Tue Jun 21 10:41:08 2022.
