 Gaussian 16, Revision C.01,
 Gaussian 16:  AS64L-G16RevC.01  3-Jul-2019

 -------------------------------------------------
 # opt=(calcfc,ts,noeigentest) freq 6-31g(d) m062x
 -------------------------------------------------

 -------------------
 Title Card Required
 -------------------
 Symbolic Z-matrix:
 Charge =  0 Multiplicity = 1

 SCF Done:  E(RM062X) =  -462.171584602     A.U. after   17 cycles
 SCF Done:  E(RM062X) =  -462.175801586     A.U. after   17 cycles
 SCF Done:  E(RM062X) =  -462.179091388     A.U. after   16 cycles
 SCF Done:  E(RM062X) =  -462.178634836     A.U. after   14 cycles
 SCF Done:  E(RM062X) =  -462.178204177     A.U. after   15 cycles
 SCF Done:  E(RM062X) =  -462.178424221     A.U. after   13 cycles
 SCF Done:  E(RM062X) =  -462.178967799     A.U. after   14 cycles
 SCF Done:  E(RM062X) =  -462.178984962     A.U. after   13 cycles
 SCF Done:  E(RM062X) =  -462.179038263     A.U. after   13 cycles
 SCF Done:  E(RM062X) =  -462.179039213     A.U. after   12 cycles
 SCF Done:  E(RM062X) =  -462.179043532     A.U. after   10 cycles
 SCF Done:  E(RM062X) =  -462.179042355     A.U. after   12 cycles
 SCF Done:  E(RM062X) =  -462.179043850     A.U. after   11 cycles
 SCF Done:  E(RM062X) =  -462.179044005     A.U. after    9 cycles
 SCF Done:  E(RM062X) =  -462.179043986     A.U. after    8 cycles
 Optimization completed.
    -- Stationary point found.
 Normal termination of Gaussian 16 at Tue Jun 21 10:26:51 2022.

 --------------------------------------------------------------------
 #N Geom=AllCheck Guess=TCheck SCRF=Check GenChk RM062X/6-31G(d) Freq
 --------------------------------------------------------------------

 Structure from the checkpoint file:  "/tmp/Gau-3052386.chk"
 -------------------
 Title Card Required
 -------------------
 Charge =  0 Multiplicity = 1

                         Standard orientation:
 ---------------------------------------------------------------------
 Center     Atomic      Atomic             Coordinates (Angstroms)
 Number     Number       Type             X           Y           Z
 ---------------------------------------------------------------------
      1          6           0        0.848114    1.510121   -0.846500
      2          6           0       -0.932682    1.677895    0.326947
      3          6           0        0.586630   -0.325261    1.667397
      4          6           0        1.820400    0.752866   -0.218291
      5          1           0        0.331426    1.089993   -1.706309
      6          1           0        0.934598    2.592133   -0.853301
      7          1           0        2.558291    1.212215    0.433752
      8          6           0       -1.353929    0.363085    0.379268
      9          6           0       -0.584381   -0.632860    1.038624
     10          1           0       -1.534960    2.375573   -0.246163
     11          1           0        1.239056   -1.113284    2.029183
     12          1           0       -0.816667   -1.678848    0.870075
     13          1           0       -0.378507    2.094885    1.156802
     14          1           0        0.807247    0.671623    2.026157
     15          8           0       -2.394677    0.053007   -0.439878
     16          6           0       -2.708498   -1.306997   -0.656797
     17          1           0       -2.992782   -1.807500    0.275886
     18          1           0       -3.558227   -1.311074   -1.339093
     19          1           0       -1.870597   -1.844552   -1.116866
     20          6           0        2.089085   -0.618003   -0.651008
     21          8           0        3.070021   -1.273735   -0.367861
     22          1           0        1.289939   -1.040416   -1.306052
 ---------------------------------------------------------------------

 SCF Done:  E(RM062X) =  -462.179043986     A.U. after    1 cycles

 The electronic state is 1-A.
 Alpha  occ. eigenvalues --  -19.68023 -19.60582 -10.62223 -10.61380 -10.60865
 Alpha  occ. eigenvalues --  -10.57192 -10.56834 -10.56076 -10.55940 -10.54461
 Alpha  occ. eigenvalues --   -1.19970  -1.13482  -0.92869  -0.87209  -0.85238
 Alpha  occ. eigenvalues --   -0.78775  -0.72856  -0.71379  -0.63679  -0.62487
 Alpha  occ. eigenvalues --   -0.59937  -0.56844  -0.55670  -0.52706  -0.52310
 Alpha  occ. eigenvalues --   -0.49975  -0.48657  -0.47676  -0.46331  -0.46021
 Alpha  occ. eigenvalues --   -0.45406  -0.43246  -0.43084  -0.40284  -0.37188
 Alpha  occ. eigenvalues --   -0.31344  -0.30092  -0.25260
 Alpha virt. eigenvalues --   -0.01264   0.03014   0.09816   0.12374   0.13027
 Alpha virt. eigenvalues --    0.14202   0.16770   0.17278   0.17628   0.18442
 Alpha virt. eigenvalues --    0.19847   0.20332   0.21709   0.23298   0.23588

 Mulliken charges:
               1
     1  C   -0.370481
     2  C   -0.446442
     3  C   -0.364044
     4  C   -0.200413
     5  H    0.184985
     6  H    0.192178
     7  H    0.169750
     8  C    0.418133
     9  C   -0.171678
    10  H    0.189713
    11  H    0.202032
    12  H    0.171856
    13  H    0.188824
    14  H    0.181948
    15  O   -0.512659
    16  C   -0.247127
    17  H    0.168415
    18  H    0.193142
    19  H    0.166354
    20  C    0.260706
    21  O   -0.462249
    22  H    0.087055
 Sum of Mulliken charges =  -0.00000

 Dipole moment (field-independent basis, Debye):
    X=             -3.5959    Y=              1.0924    Z=              0.4192  Tot=              3.7815
 Quadrupole moment (field-independent basis, Debye-Ang):
   XX=            -72.6017   YY=            -56.5240   ZZ=            -58.8537
   XY=             10.8511   XZ=              4.2474   YZ=              0.4171

  Exact polarizability:     124.932      -1.879      96.717       4.140      -4.887      76.520
 Approx polarizability:     163.744      -9.147     126.626       6.800     -12.468      98.574

 ******    1 imaginary frequencies (negative Signs) ******

                      1                      2                      3
                      A                      A                      A
 Frequencies --   -457.2940                47.5602                78.8848
 Red. masses --      8.3534                 4.2037                 3.2934
 Frc consts  --      1.0292                 0.0056                 0.0121
 IR Inten    --     19.3503                 3.7999                 2.9153

                      4                      5                      6
                      A                      A                      A
 Frequencies --    121.5796               135.8805               209.0352
 Red. masses --      5.6465                 4.3911                 4.3181
 Frc consts  --      0.0492                 0.0478                 0.1112
 IR Inten    --      5.5243                15.4220                 6.4324

                      7                      8                      9
                      A                      A                      A
 Frequencies --    240.3945               274.6433               291.2123
 Red. masses --      2.0125                 1.4075                 2.8171
 Frc consts  --      0.0685                 0.0626                 0.1408
 IR Inten    --      2.9635                 0.1900                 0.9656

                     10                     11                     12
                      A                      A                      A
 Frequencies --    340.8349               359.8683               387.6644
 Red. masses --      2.0092                 2.6933                 3.2099
 Frc consts  --      0.1375                 0.2055                 0.2842
 IR Inten    --      3.4306                 5.5602                13.7872

                     13                     14                     15
                      A                      A                      A
 Frequencies --    429.4213               484.7423               558.3689
 Red. masses --      2.9507                 2.3845                 2.3100
 Frc consts  --      0.3206                 0.3301                 0.4243
 IR Inten    --     11.2955                 0.8006                 2.0298

                     16                     17                     18
                      A                      A                      A
 Frequencies --    576.6714               581.0799               743.4853
 Red. masses --      2.9917                 3.1007                 1.9935
 Frc consts  --      0.5862                 0.6168                 0.6492
 IR Inten    --     12.7911                22.0029                 4.6706

                     19                     20                     21
                      A                      A                      A
 Frequencies --    769.4157               842.6139               858.3408
 Red. masses --      1.3169                 2.0871                 1.3580
 Frc consts  --      0.4593                 0.8731                 0.5895
 IR Inten    --      7.0159                 7.6505                 4.8211

                     22                     23                     24
                      A                      A                      A
 Frequencies --    906.1246               926.0525               949.9438
 Red. masses --      1.2395                 1.3045                 1.2220
 Frc consts  --      0.5996                 0.6591                 0.6497
 IR Inten    --     25.0527                35.4887                15.9618

                     25                     26                     27
                      A                      A                      A
 Frequencies --    980.3728               993.7550              1024.8205
 Red. masses --      1.3372                 1.2318                 1.5127
 Frc consts  --      0.7572                 0.7167                 0.9360
 IR Inten    --      8.1210                 2.8281                19.0684

                     28                     29                     30
                      A                      A                      A
 Frequencies --   1047.8275              1069.3933              1100.4772
 Red. masses --      1.2844                 1.2343                 1.5622
 Frc consts  --      0.8309                 0.8317                 1.1147
 IR Inten    --      2.0052                 9.7457                 6.2024

                     31                     32                     33
                      A                      A                      A
 Frequencies --   1176.4838              1188.4651              1190.6839
 Red. masses --      3.9004                 1.6513                 1.3765
 Frc consts  --      3.1808                 1.3742                 1.1498
 IR Inten    --     80.3157                92.0329                15.2321

                     34                     35                     36
                      A                      A                      A
 Frequencies --   1225.5929              1275.0234              1314.7643
 Red. masses --      1.3792                 1.8503                 1.5135
 Frc consts  --      1.2206                 1.7722                 1.5415
 IR Inten    --      0.2731                 4.0072               100.4225

                     37                     38                     39
                      A                      A                      A
 Frequencies --   1364.0792              1389.0761              1428.5927
 Red. masses --      2.0974                 1.5724                 1.3194
 Frc consts  --      2.2994                 1.7876                 1.5865
 IR Inten    --    141.4521                16.5764                18.3890

                     40                     41                     42
                      A                      A                      A
 Frequencies --   1464.9312              1499.3265              1522.6845
 Red. masses --      1.2979                 1.3068                 1.6382
 Frc consts  --      1.6411                 1.7309                 2.2379
 IR Inten    --      6.4422                57.4128                60.4527

                     43                     44                     45
                      A                      A                      A
 Frequencies --   1531.1119              1540.8324              1563.6509
 Red. masses --      1.0461                 1.0482                 1.6675
 Frc consts  --      1.4448                 1.4663                 2.4021
 IR Inten    --      6.2687                23.5885                24.6877

                     46                     47                     48
                      A                      A                      A
 Frequencies --   1625.6600              1663.3766              1841.0019
 Red. masses --      3.2798                 3.3409                 9.8232
 Frc consts  --      5.1070                 5.4462                19.6160
 IR Inten    --     15.0595                98.7020               436.5383

                     49                     50                     51
                      A                      A                      A
 Frequencies --   2905.3653              3065.1823              3132.7629
 Red. masses --      1.0822                 1.0350                 1.1065
 Frc consts  --      5.3820                 5.7295                 6.3983
 IR Inten    --     81.8775                39.1371                33.7894

                     52                     53                     54
                      A                      A                      A
 Frequencies --   3181.8824              3199.7573              3217.3181
 Red. masses --      1.0584                 1.1006                 1.0603
 Frc consts  --      6.3132                 6.6393                 6.4662
 IR Inten    --      4.7596                19.6945                 0.7402

                     55                     56                     57
                      A                      A                      A
 Frequencies --   3222.4809              3225.5773              3248.2137
 Red. masses --      1.0610                 1.0894                 1.0903
 Frc consts  --      6.4916                 6.6778                 6.7780
 IR Inten    --      1.5654                 3.7261                 3.1835

                     58                     59                     60
                      A                      A                      A
 Frequencies --   3267.2623              3309.4381              3311.9808
 Red. masses --      1.1148                 1.1163                 1.1146
 Frc consts  --      7.0113                 7.2037                 7.2035
 IR Inten    --      3.2049                 1.6588                 1.4078

 - Thermochemistry -
 -------------------
 Temperature   298.150 Kelvin.  Pressure   1.00000 Atm.
 Atom     1 has atomic number  6 and mass  12.00000

 Molecular mass:   140.08373 amu.
 Principal axes and moments of inertia in atomic units:
                           1         2         3
     Eigenvalues --   902.853692162.389262400.71003
           X            0.99906   0.03944   0.01811
           Y           -0.03968   0.99913   0.01282
           Z           -0.01759  -0.01352   0.99975
 This molecule is an asymmetric top.
 Rotational symmetry number  1.
 Warning -- assumption of classical behavior for rotation
           may cause significant error
 Rotational temperatures (Kelvin)      0.09593     0.04005     0.03608
 Rotational constants (GHZ):           1.99893     0.83461     0.75175
    1 imaginary frequencies ignored.
 Zero-point vibrational energy     487017.8 (Joules/Mol)
                                  116.40006 (Kcal/Mol)
 Warning -- explicit consideration of  16 degrees of freedom as
           vibrations may cause significant error
 Vibrational temperatures:     68.43   113.50   174.93   195.50   300.76
          (Kelvin)            345.87   395.15   418.99   490.39   517.77
                              557.76   617.84   697.44   803.37   829.70
                              836.04  1069.71  1107.02  1212.33  1234.96
                             1303.71  1332.38  1366.76  1410.54  1429.79
                             1474.49  1507.59  1538.62  1583.34  1692.70
                             1709.94  1713.13  1763.35  1834.47  1891.65
                             1962.61  1998.57  2055.43  2107.71  2157.20
                             2190.80  2202.93  2216.91  2249.74  2338.96
                             2393.23  2648.79  4180.17  4410.11  4507.35
                             4578.02  4603.74  4629.00  4636.43  4640.89
                             4673.46  4700.86  4761.54  4765.20

 Zero-point correction=                           0.185495 (Hartree/Particle)
 Thermal correction to Energy=                    0.196130
 Thermal correction to Enthalpy=                  0.197074
 Thermal correction to Gibbs Free Energy=         0.149195
 Sum of electronic and zero-point Energies=           -461.993549
 Sum of electronic and thermal Energies=              -461.982914
 Sum of electronic and thermal Enthalpies=            -461.981970
 Sum of electronic and thermal Free Energies=         -462.029849

                     E (Thermal)             CV                S
                      KCal/Mol        Cal/Mol-Kelvin    Cal/Mol-Kelvin
 Total                  123.073             39.407            100.770
 Electronic               0.000              0.000              0.000
 Translational            0.889              2.981             40.723
 Rotational               0.889              2.981             29.928
 Vibrational            121.296             33.445             30.119
 Vibration     1          0.595              1.979              4.916
 Vibration     2          0.600              1.963              3.918
 Vibration     3          0.609              1.931              3.075
 Vibration     4          0.614              1.918              2.861
 Vibration     5          0.642              1.827              2.052
 Vibration     6          0.657              1.779              1.800
 Vibration     7          0.677              1.720              1.567
 Vibration     8          0.687              1.690              1.467
 Vibration     9          0.720              1.594              1.208
 Vibration    10          0.734              1.555              1.123
 Vibration    11          0.756              1.497              1.009
 Vibration    12          0.791              1.406              0.861
 Vibration    13          0.841              1.284              0.697
 Vibration    14          0.914              1.121              0.527
 Vibration    15          0.933              1.082              0.492
 Vibration    16          0.938              1.072              0.483

 Optimization completed.
    -- Stationary point found.
 Normal termination of Gaussian 16 at Tue Jun 21 10:28:24 2022.
