 Gaussian 16, Revision C.01,
 Gaussian 16:  AS64L-G16RevC.01  3-Jul-2019

 -------------------------------------------------
 # opt=(calcfc,ts,noeigentest) freq 6-31g(d) m062x
 -------------------------------------------------

 -------------------
 Title Card Required
 -------------------
 Symbolic Z-matrix:
 Charge =  0 Multiplicity = 1

 SCF Done:  E(RM062X) =  -462.159638488     A.U. after   16 cycles
 SCF Done:  E(RM062X) =  -462.172100757     A.U. after   16 cycles
 SCF Done:  E(RM062X) =  -462.172892644     A.U. after   16 cycles
 SCF Done:  E(RM062X) =  -462.173275493     A.U. after   14 cycles
 SCF Done:  E(RM062X) =  -462.170878313     A.U. after   16 cycles
 SCF Done:  E(RM062X) =  -462.173078802     A.U. after   15 cycles
 SCF Done:  E(RM062X) =  -462.172884507     A.U. after   15 cycles
 SCF Done:  E(RM062X) =  -462.172364230     A.U. after   15 cycles
 SCF Done:  E(RM062X) =  -462.173761122     A.U. after   14 cycles
 SCF Done:  E(RM062X) =  -462.173927272     A.U. after   14 cycles
 SCF Done:  E(RM062X) =  -462.173903998     A.U. after   13 cycles
 SCF Done:  E(RM062X) =  -462.173959284     A.U. after   12 cycles
 SCF Done:  E(RM062X) =  -462.173972347     A.U. after   12 cycles
 SCF Done:  E(RM062X) =  -462.173978618     A.U. after   12 cycles
 SCF Done:  E(RM062X) =  -462.173979676     A.U. after    9 cycles
 SCF Done:  E(RM062X) =  -462.173980140     A.U. after   10 cycles
 SCF Done:  E(RM062X) =  -462.173980259     A.U. after    9 cycles
 SCF Done:  E(RM062X) =  -462.173979245     A.U. after   11 cycles
 SCF Done:  E(RM062X) =  -462.173980403     A.U. after   10 cycles
 Optimization completed.
    -- Stationary point found.
 Normal termination of Gaussian 16 at Tue Jun 21 10:40:38 2022.

 --------------------------------------------------------------------
 #N Geom=AllCheck Guess=TCheck SCRF=Check GenChk RM062X/6-31G(d) Freq
 --------------------------------------------------------------------

 Structure from the checkpoint file:  "/tmp/Gau-2313140.chk"
 -------------------
 Title Card Required
 -------------------
 Charge =  0 Multiplicity = 1

                         Standard orientation:
 ---------------------------------------------------------------------
 Center     Atomic      Atomic             Coordinates (Angstroms)
 Number     Number       Type             X           Y           Z
 ---------------------------------------------------------------------
      1          6           0       -1.213433    1.454079    0.860923
      2          6           0        0.337991    2.025288   -0.610598
      3          6           0       -0.061607   -0.762828   -0.978283
      4          6           0       -1.453720    0.098980    0.743487
      5          1           0       -0.634345    1.837234    1.692012
      6          1           0       -1.923199    2.153874    0.424333
      7          1           0       -1.008344   -0.619358    1.423404
      8          6           0        1.342336    1.119667   -0.358420
      9          6           0        1.137403   -0.272715   -0.522677
     10          1           0        0.504496    3.076204   -0.393556
     11          1           0       -0.250394   -1.830513   -0.950747
     12          1           0       -0.415347    1.831278   -1.364967
     13          1           0       -0.668050   -0.176684   -1.654842
     14          6           0       -2.635173   -0.359062   -0.003857
     15          8           0       -3.100541   -1.475241    0.034356
     16          1           0       -3.097639    0.429175   -0.643866
     17          8           0        2.013920   -1.204192   -0.041983
     18          6           0        3.148470   -0.759462    0.665421
     19          1           0        3.694821   -1.658593    0.950473
     20          1           0        3.794361   -0.130800    0.040328
     21          1           0        2.871457   -0.203689    1.570114
     22          1           0        2.211549    1.463651    0.192362
 ---------------------------------------------------------------------

 SCF Done:  E(RM062X) =  -462.173980403     A.U. after    1 cycles

 The electronic state is 1-A.
 Alpha  occ. eigenvalues --  -19.66912 -19.62150 -10.62449 -10.61150 -10.60292
 Alpha  occ. eigenvalues --  -10.57106 -10.56292 -10.55962 -10.55559 -10.55389
 Alpha  occ. eigenvalues --   -1.18906  -1.14985  -0.92489  -0.87574  -0.84619
 Alpha  occ. eigenvalues --   -0.78007  -0.72899  -0.71495  -0.64151  -0.61994
 Alpha  occ. eigenvalues --   -0.59643  -0.56261  -0.54954  -0.53185  -0.53033
 Alpha  occ. eigenvalues --   -0.49884  -0.48244  -0.47229  -0.47143  -0.46067
 Alpha  occ. eigenvalues --   -0.45085  -0.43503  -0.42775  -0.39763  -0.37908
 Alpha  occ. eigenvalues --   -0.31290  -0.28394  -0.26950
 Alpha virt. eigenvalues --   -0.01345   0.02542   0.09722   0.12307   0.13454
 Alpha virt. eigenvalues --    0.15115   0.16358   0.16870   0.18197   0.19555
 Alpha virt. eigenvalues --    0.19981   0.21067   0.21322   0.21907   0.24803

 Mulliken charges:
               1
     1  C   -0.394797
     2  C   -0.377807
     3  C   -0.445114
     4  C   -0.165462
     5  H    0.186467
     6  H    0.177730
     7  H    0.188005
     8  C   -0.156499
     9  C    0.414771
    10  H    0.178444
    11  H    0.205574
    12  H    0.182873
    13  H    0.179583
    14  C    0.248225
    15  O   -0.437921
    16  H    0.102461
    17  O   -0.518816
    18  C   -0.241173
    19  H    0.191105
    20  H    0.161836
    21  H    0.157392
    22  H    0.163124
 Sum of Mulliken charges =   0.00000

 Dipole moment (field-independent basis, Debye):
    X=              3.2450    Y=              3.5708    Z=              0.5774  Tot=              4.8594
 Quadrupole moment (field-independent basis, Debye-Ang):
   XX=            -63.4704   YY=            -61.7133   ZZ=            -59.7225
   XY=             -7.1631   XZ=              5.0480   YZ=             -0.3204

  Exact polarizability:     123.069       4.438     105.414       1.959       1.814      67.766
 Approx polarizability:     145.745      11.100     148.994      -2.472       5.955      87.329

 ******    1 imaginary frequencies (negative Signs) ******

                      1                      2                      3
                      A                      A                      A
 Frequencies --   -465.2807                54.0663                68.7565
 Red. masses --      8.7017                 3.6325                 3.4644
 Frc consts  --      1.1099                 0.0063                 0.0096
 IR Inten    --      6.6188                 1.5080                 2.9430

                      4                      5                      6
                      A                      A                      A
 Frequencies --    103.3288               141.7532               214.4847
 Red. masses --      6.6314                 4.6290                 4.3159
 Frc consts  --      0.0417                 0.0548                 0.1170
 IR Inten    --      1.0690                 5.0071                 5.7090

                      7                      8                      9
                      A                      A                      A
 Frequencies --    221.6799               277.3132               294.6042
 Red. masses --      2.2515                 1.2328                 2.8418
 Frc consts  --      0.0652                 0.0559                 0.1453
 IR Inten    --      5.0852                 0.2958                 2.5311

                     10                     11                     12
                      A                      A                      A
 Frequencies --    343.4516               378.6053               404.2914
 Red. masses --      2.4588                 2.3752                 4.0650
 Frc consts  --      0.1709                 0.2006                 0.3915
 IR Inten    --      7.0339                 2.7298                 4.5790

                     13                     14                     15
                      A                      A                      A
 Frequencies --    416.8112               482.7146               574.1534
 Red. masses --      2.5918                 2.4364                 3.6640
 Frc consts  --      0.2653                 0.3345                 0.7116
 IR Inten    --      0.0099                 1.4381                 4.4368

                     16                     17                     18
                      A                      A                      A
 Frequencies --    578.2274               595.5726               755.8240
 Red. masses --      3.2018                 2.5453                 1.4112
 Frc consts  --      0.6307                 0.5319                 0.4750
 IR Inten    --     17.2180                 2.9111                 7.6985

                     19                     20                     21
                      A                      A                      A
 Frequencies --    783.6208               818.0049               850.5467
 Red. masses --      1.2108                 1.3851                 2.1611
 Frc consts  --      0.4381                 0.5461                 0.9211
 IR Inten    --      0.9206                 7.2867                25.9830

                     22                     23                     24
                      A                      A                      A
 Frequencies --    877.5275               928.9577               940.9877
 Red. masses --      1.3005                 1.3282                 1.2187
 Frc consts  --      0.5901                 0.6753                 0.6358
 IR Inten    --      7.1034                19.9964                 8.8572

                     25                     26                     27
                      A                      A                      A
 Frequencies --    967.4165               993.9632              1019.9863
 Red. masses --      1.3632                 1.2342                 1.4382
 Frc consts  --      0.7517                 0.7184                 0.8816
 IR Inten    --      7.9312                 3.7594                19.7591

                     28                     29                     30
                      A                      A                      A
 Frequencies --   1036.6233              1049.6120              1107.1498
 Red. masses --      1.3936                 1.2428                 1.4942
 Frc consts  --      0.8823                 0.8067                 1.0791
 IR Inten    --     10.2169                26.5567                 0.2178

                     31                     32                     33
                      A                      A                      A
 Frequencies --   1180.4132              1185.1237              1192.2971
 Red. masses --      3.5314                 1.9432                 1.3209
 Frc consts  --      2.8991                 1.6080                 1.1063
 IR Inten    --     26.6716               157.2626                 6.0763

                     34                     35                     36
                      A                      A                      A
 Frequencies --   1225.2864              1272.3324              1311.3147
 Red. masses --      1.3894                 1.7652                 1.4636
 Frc consts  --      1.2290                 1.6836                 1.4828
 IR Inten    --      0.1855                 2.6911                51.0395

                     37                     38                     39
                      A                      A                      A
 Frequencies --   1352.4482              1390.3132              1425.7763
 Red. masses --      2.7260                 1.4008                 1.3088
 Frc consts  --      2.9378                 1.5954                 1.5676
 IR Inten    --    153.0115                 7.0515                23.9530

                     40                     41                     42
                      A                      A                      A
 Frequencies --   1467.0831              1501.0432              1521.8477
 Red. masses --      1.3108                 1.2825                 1.6093
 Frc consts  --      1.6623                 1.7026                 2.1960
 IR Inten    --      6.8176                39.0339                40.9053

                     43                     44                     45
                      A                      A                      A
 Frequencies --   1531.0733              1542.5998              1566.0718
 Red. masses --      1.0460                 1.0498                 1.6562
 Frc consts  --      1.4447                 1.4719                 2.3933
 IR Inten    --      6.2907                21.6758                21.1119

                     46                     47                     48
                      A                      A                      A
 Frequencies --   1629.5516              1658.5682              1859.7415
 Red. masses --      3.3353                 3.4737                10.2068
 Frc consts  --      5.2183                 5.6300                20.7992
 IR Inten    --      3.0077                80.7465               345.4508

                     49                     50                     51
                      A                      A                      A
 Frequencies --   2915.4647              3058.6724              3122.5690
 Red. masses --      1.0827                 1.0354                 1.1062
 Frc consts  --      5.4221                 5.7073                 6.3550
 IR Inten    --    112.9680                43.1997                40.3733

                     52                     53                     54
                      A                      A                      A
 Frequencies --   3184.9054              3194.8262              3205.1517
 Red. masses --      1.0612                 1.0997                 1.0587
 Frc consts  --      6.3421                 6.6133                 6.4081
 IR Inten    --      1.9546                21.9126                 4.0058

                     55                     56                     57
                      A                      A                      A
 Frequencies --   3226.9545              3243.3730              3244.3966
 Red. masses --      1.0588                 1.0900                 1.0922
 Frc consts  --      6.4961                 6.7555                 6.7734
 IR Inten    --      1.3874                 2.8622                 1.1637

                     58                     59                     60
                      A                      A                      A
 Frequencies --   3284.9671              3288.4735              3320.2689
 Red. masses --      1.1136                 1.1133                 1.1171
 Frc consts  --      7.0800                 7.0932                 7.2556
 IR Inten    --      2.0073                 7.9317                 0.8034

 - Thermochemistry -
 -------------------
 Temperature   298.150 Kelvin.  Pressure   1.00000 Atm.
 Atom     1 has atomic number  6 and mass  12.00000

 Molecular mass:   140.08373 amu.
 Principal axes and moments of inertia in atomic units:
                           1         2         3
     Eigenvalues --   891.960062200.199952691.06648
           X            0.99958  -0.02262   0.01785
           Y            0.02269   0.99974  -0.00379
           Z           -0.01776   0.00420   0.99983
 This molecule is an asymmetric top.
 Rotational symmetry number  1.
 Warning -- assumption of classical behavior for rotation
           may cause significant error
 Rotational temperatures (Kelvin)      0.09711     0.03937     0.03219
 Rotational constants (GHZ):           2.02334     0.82026     0.67064
    1 imaginary frequencies ignored.
 Zero-point vibrational energy     486778.1 (Joules/Mol)
                                  116.34276 (Kcal/Mol)
 Warning -- explicit consideration of  16 degrees of freedom as
           vibrations may cause significant error
 Vibrational temperatures:     77.79    98.93   148.67   203.95   308.60
          (Kelvin)            318.95   398.99   423.87   494.15   544.73
                              581.69   599.70   694.52   826.08   831.94
                              856.90  1087.46  1127.46  1176.93  1223.75
                             1262.57  1336.56  1353.87  1391.90  1430.09
                             1467.53  1491.47  1510.16  1592.94  1698.35
                             1705.13  1715.45  1762.91  1830.60  1886.69
                             1945.87  2000.35  2051.37  2110.81  2159.67
                             2189.60  2202.87  2219.46  2253.23  2344.56
                             2386.31  2675.75  4194.70  4400.75  4492.68
                             4582.37  4596.64  4611.50  4642.87  4666.49
                             4667.96  4726.33  4731.38  4777.13

 Zero-point correction=                           0.185404 (Hartree/Particle)
 Thermal correction to Energy=                    0.196048
 Thermal correction to Enthalpy=                  0.196992
 Thermal correction to Gibbs Free Energy=         0.148970
 Sum of electronic and zero-point Energies=           -461.988576
 Sum of electronic and thermal Energies=              -461.977933
 Sum of electronic and thermal Enthalpies=            -461.976988
 Sum of electronic and thermal Free Energies=         -462.025010

                     E (Thermal)             CV                S
                      KCal/Mol        Cal/Mol-Kelvin    Cal/Mol-Kelvin
 Total                  123.022             39.411            101.071
 Electronic               0.000              0.000              0.000
 Translational            0.889              2.981             40.723
 Rotational               0.889              2.981             30.047
 Vibrational            121.244             33.450             30.301
 Vibration     1          0.596              1.976              4.663
 Vibration     2          0.598              1.969              4.189
 Vibration     3          0.605              1.947              3.391
 Vibration     4          0.615              1.911              2.780
 Vibration     5          0.644              1.819              2.005
 Vibration     6          0.648              1.808              1.945
 Vibration     7          0.678              1.715              1.550
 Vibration     8          0.689              1.684              1.447
 Vibration     9          0.722              1.589              1.196
 Vibration    10          0.749              1.516              1.045
 Vibration    11          0.769              1.461              0.947
 Vibration    12          0.780              1.434              0.903
 Vibration    13          0.839              1.288              0.703
 Vibration    14          0.930              1.087              0.496
 Vibration    15          0.935              1.078              0.489
 Vibration    16          0.953              1.041              0.457

 Optimization completed.
    -- Stationary point found.
 Normal termination of Gaussian 16 at Tue Jun 21 10:42:07 2022.
