 Gaussian 16, Revision C.01,
 Gaussian 16:  AS64L-G16RevC.01  3-Jul-2019

 -------------------------------------------------
 # opt=(calcfc,ts,noeigentest) freq 6-31g(d) m062x
 -------------------------------------------------

 -------------------
 Title Card Required
 -------------------
 Symbolic Z-matrix:
 Charge =  0 Multiplicity = 1

 SCF Done:  E(RM062X) =  -462.165872374     A.U. after   16 cycles
 SCF Done:  E(RM062X) =  -462.173795148     A.U. after   16 cycles
 SCF Done:  E(RM062X) =  -462.177914986     A.U. after   15 cycles
 SCF Done:  E(RM062X) =  -462.178695032     A.U. after   15 cycles
 SCF Done:  E(RM062X) =  -462.178404945     A.U. after   14 cycles
 SCF Done:  E(RM062X) =  -462.174700332     A.U. after   16 cycles
 SCF Done:  E(RM062X) =  -462.178270077     A.U. after   15 cycles
 SCF Done:  E(RM062X) =  -462.178774367     A.U. after   15 cycles
 SCF Done:  E(RM062X) =  -462.178962328     A.U. after   14 cycles
 SCF Done:  E(RM062X) =  -462.178902012     A.U. after   14 cycles
 SCF Done:  E(RM062X) =  -462.178839872     A.U. after   14 cycles
 SCF Done:  E(RM062X) =  -462.179024057     A.U. after   14 cycles
 SCF Done:  E(RM062X) =  -462.177499611     A.U. after   14 cycles
 SCF Done:  E(RM062X) =  -462.178839404     A.U. after   14 cycles
 SCF Done:  E(RM062X) =  -462.178938784     A.U. after   14 cycles
 SCF Done:  E(RM062X) =  -462.179024949     A.U. after   13 cycles
 SCF Done:  E(RM062X) =  -462.179026112     A.U. after   12 cycles
 SCF Done:  E(RM062X) =  -462.179026614     A.U. after    9 cycles
 SCF Done:  E(RM062X) =  -462.179026621     A.U. after    7 cycles
 Optimization completed.
    -- Stationary point found.
 Normal termination of Gaussian 16 at Tue Jun 21 10:23:45 2022.

 --------------------------------------------------------------------
 #N Geom=AllCheck Guess=TCheck SCRF=Check GenChk RM062X/6-31G(d) Freq
 --------------------------------------------------------------------

 Structure from the checkpoint file:  "DATS_14_exo_iv.chk"
 -------------------
 Title Card Required
 -------------------
 Charge =  0 Multiplicity = 1

                         Standard orientation:
 ---------------------------------------------------------------------
 Center     Atomic      Atomic             Coordinates (Angstroms)
 Number     Number       Type             X           Y           Z
 ---------------------------------------------------------------------
      1          6           0       -0.550114   -1.462630   -0.280255
      2          6           0        0.924316   -0.643239    0.976302
      3          6           0       -0.799432    1.532811    0.375473
      4          6           0       -1.521912   -0.528551   -0.626264
      5          1           0        0.153542   -1.799091   -1.034087
      6          1           0       -0.808327   -2.216096    0.461924
      7          1           0       -1.504371   -0.024268   -1.585608
      8          6           0        1.371535    0.457279    0.257259
      9          6           0        0.497136    1.523978   -0.052766
     10          1           0        1.585169   -1.480232    1.172328
     11          1           0       -1.509892    2.258919   -0.006455
     12          1           0        0.824066    2.202470   -0.835828
     13          1           0        0.190830   -0.466432    1.752045
     14          1           0       -1.100105    1.034154    1.289354
     15          8           0        2.537886    0.483114   -0.438258
     16          6           0        3.462554   -0.558275   -0.211973
     17          1           0        3.074543   -1.521942   -0.563440
     18          1           0        4.354252   -0.301154   -0.783151
     19          1           0        3.716180   -0.638663    0.851718
     20          6           0       -2.779975   -0.486953    0.114674
     21          8           0       -3.766151    0.147509   -0.197025
     22          1           0       -2.774411   -1.099175    1.048765
 ---------------------------------------------------------------------

 SCF Done:  E(RM062X) =  -462.179026621     A.U. after    1 cycles

 The electronic state is 1-A.
 Alpha  occ. eigenvalues --  -19.68196 -19.61125 -10.62183 -10.61589 -10.61003
 Alpha  occ. eigenvalues --  -10.56989 -10.56881 -10.56454 -10.55164 -10.54356
 Alpha  occ. eigenvalues --   -1.20216  -1.13905  -0.92874  -0.87382  -0.83255
 Alpha  occ. eigenvalues --   -0.81598  -0.71778  -0.71045  -0.63846  -0.62606
 Alpha  occ. eigenvalues --   -0.59642  -0.57132  -0.55883  -0.52837  -0.52368
 Alpha  occ. eigenvalues --   -0.51119  -0.48202  -0.47659  -0.46061  -0.45694
 Alpha  occ. eigenvalues --   -0.44271  -0.43766  -0.43206  -0.40864  -0.37638
 Alpha  occ. eigenvalues --   -0.30832  -0.30358  -0.25456
 Alpha virt. eigenvalues --   -0.00933   0.02847   0.09567   0.11035   0.13977
 Alpha virt. eigenvalues --    0.15334   0.16376   0.16898   0.17980   0.19096
 Alpha virt. eigenvalues --    0.19995   0.20722   0.21002   0.22267   0.24311

 Mulliken charges:
               1
     1  C   -0.368897
     2  C   -0.469074
     3  C   -0.369713
     4  C   -0.188931
     5  H    0.186340
     6  H    0.181775
     7  H    0.179646
     8  C    0.419441
     9  C   -0.149440
    10  H    0.177599
    11  H    0.201063
    12  H    0.180018
    13  H    0.191587
    14  H    0.179793
    15  O   -0.508999
    16  C   -0.242700
    17  H    0.161261
    18  H    0.192994
    19  H    0.166039
    20  C    0.239980
    21  O   -0.454023
    22  H    0.094241
 Sum of Mulliken charges =  -0.00000

 Dipole moment (field-independent basis, Debye):
    X=              4.7833    Y=             -1.8338    Z=              0.9987  Tot=              5.2192
 Quadrupole moment (field-independent basis, Debye-Ang):
   XX=            -72.4633   YY=            -57.7055   ZZ=            -59.3311
   XY=             -2.9990   XZ=             -2.4997   YZ=             -1.6644

  Exact polarizability:     146.138      -2.830      90.980       0.969      -6.875      68.494
 Approx polarizability:     179.297      -3.562     125.112       5.411     -10.393      88.983

 ******    1 imaginary frequencies (negative Signs) ******

                      1                      2                      3
                      A                      A                      A
 Frequencies --   -511.8640                60.3600                81.7298
 Red. masses --      8.7298                 4.3460                 3.6292
 Frc consts  --      1.3476                 0.0093                 0.0143
 IR Inten    --      9.6756                 1.7592                 1.3849

                      4                      5                      6
                      A                      A                      A
 Frequencies --    109.7188               144.9572               213.6726
 Red. masses --      5.8897                 4.4269                 3.1182
 Frc consts  --      0.0418                 0.0548                 0.0839
 IR Inten    --      5.9330                 6.4560                25.1655

                      7                      8                      9
                      A                      A                      A
 Frequencies --    227.4190               278.3279               283.6639
 Red. masses --      2.4635                 1.2907                 2.3065
 Frc consts  --      0.0751                 0.0589                 0.1093
 IR Inten    --      2.6454                 3.3122                 2.6920

                     10                     11                     12
                      A                      A                      A
 Frequencies --    331.2017               358.9526               402.2019
 Red. masses --      2.7288                 2.6803                 3.3304
 Frc consts  --      0.1764                 0.2035                 0.3174
 IR Inten    --      1.4548                 7.8929                35.4020

                     13                     14                     15
                      A                      A                      A
 Frequencies --    453.3732               502.3830               545.0123
 Red. masses --      3.1961                 3.6226                 2.2258
 Frc consts  --      0.3871                 0.5387                 0.3895
 IR Inten    --     12.8101                 2.6384                 2.5857

                     16                     17                     18
                      A                      A                      A
 Frequencies --    581.5518               600.4999               762.7274
 Red. masses --      2.9480                 2.4001                 1.6778
 Frc consts  --      0.5874                 0.5099                 0.5751
 IR Inten    --      4.1060                13.3846                 7.1284

                     19                     20                     21
                      A                      A                      A
 Frequencies --    797.7052               858.7917               874.8982
 Red. masses --      1.3915                 1.3255                 1.9775
 Frc consts  --      0.5217                 0.5760                 0.8918
 IR Inten    --      5.8779                 7.4608                 6.7506

                     22                     23                     24
                      A                      A                      A
 Frequencies --    891.3381               925.1608               980.7245
 Red. masses --      1.2548                 1.3196                 1.1869
 Frc consts  --      0.5874                 0.6655                 0.6726
 IR Inten    --     38.4172                10.5982                49.7917

                     25                     26                     27
                      A                      A                      A
 Frequencies --    989.7832              1015.7998              1027.2211
 Red. masses --      1.2698                 1.3206                 1.5749
 Frc consts  --      0.7329                 0.8028                 0.9791
 IR Inten    --      6.4491                 3.9136                20.7466

                     28                     29                     30
                      A                      A                      A
 Frequencies --   1053.4321              1068.4881              1094.8627
 Red. masses --      1.2834                 1.2666                 1.5018
 Frc consts  --      0.8391                 0.8520                 1.0607
 IR Inten    --     48.8377                12.7180                 9.3548

                     31                     32                     33
                      A                      A                      A
 Frequencies --   1148.1275              1192.3494              1192.6833
 Red. masses --      3.8777                 1.5794                 1.3351
 Frc consts  --      3.0116                 1.3229                 1.1190
 IR Inten    --     84.7995               104.9758                33.7845

                     34                     35                     36
                      A                      A                      A
 Frequencies --   1234.5800              1263.4540              1288.7389
 Red. masses --      1.4216                 1.7641                 1.5006
 Frc consts  --      1.2767                 1.6592                 1.4684
 IR Inten    --      6.9877                11.3521                43.7040

                     37                     38                     39
                      A                      A                      A
 Frequencies --   1374.2760              1388.2978              1431.8765
 Red. masses --      1.9131                 1.8148                 1.3399
 Frc consts  --      2.1288                 2.0608                 1.6185
 IR Inten    --    210.6542                33.7720                59.4119

                     40                     41                     42
                      A                      A                      A
 Frequencies --   1468.6099              1500.1274              1521.2067
 Red. masses --      1.3322                 1.3920                 1.3685
 Frc consts  --      1.6928                 1.8456                 1.8658
 IR Inten    --      3.5070                39.8403                45.9222

                     43                     44                     45
                      A                      A                      A
 Frequencies --   1529.0165              1542.0780              1558.3719
 Red. masses --      1.1539                 1.0764                 1.5471
 Frc consts  --      1.5894                 1.5081                 2.2137
 IR Inten    --      9.4608                28.2406                47.2706

                     46                     47                     48
                      A                      A                      A
 Frequencies --   1620.3445              1657.4824              1842.3174
 Red. masses --      3.1423                 3.3181                 9.9315
 Frc consts  --      4.8608                 5.3707                19.8606
 IR Inten    --     41.1422               123.2753               428.5744

                     49                     50                     51
                      A                      A                      A
 Frequencies --   2900.4765              3064.4519              3129.2960
 Red. masses --      1.0818                 1.0348                 1.1062
 Frc consts  --      5.3622                 5.7252                 6.3824
 IR Inten    --    126.5474                42.7807                34.6189

                     52                     53                     54
                      A                      A                      A
 Frequencies --   3174.7329              3200.1064              3213.5653
 Red. masses --      1.0602                 1.1008                 1.0587
 Frc consts  --      6.2958                 6.6416                 6.4417
 IR Inten    --      4.9595                19.4678                 2.9556

                     55                     56                     57
                      A                      A                      A
 Frequencies --   3223.7002              3228.8748              3251.8413
 Red. masses --      1.0590                 1.0921                 1.0947
 Frc consts  --      6.4841                 6.7085                 6.8205
 IR Inten    --      2.2906                 1.8236                 0.9520

                     58                     59                     60
                      A                      A                      A
 Frequencies --   3268.3346              3295.7505              3300.8114
 Red. masses --      1.1093                 1.1165                 1.1144
 Frc consts  --      6.9813                 7.1451                 7.1534
 IR Inten    --      4.5551                 3.5582                 2.7266

 - Thermochemistry -
 -------------------
 Temperature   298.150 Kelvin.  Pressure   1.00000 Atm.
 Atom     1 has atomic number  6 and mass  12.00000

 Molecular mass:   140.08373 amu.
 Principal axes and moments of inertia in atomic units:
                           1         2         3
     Eigenvalues --   593.509082637.794302964.61896
           X            0.99987  -0.01593  -0.00386
           Y            0.01580   0.99941  -0.03053
           Z            0.00435   0.03047   0.99953
 This molecule is an asymmetric top.
 Rotational symmetry number  1.
 Warning -- assumption of classical behavior for rotation
           may cause significant error
 Rotational temperatures (Kelvin)      0.14594     0.03284     0.02922
 Rotational constants (GHZ):           3.04080     0.68419     0.60876
    1 imaginary frequencies ignored.
 Zero-point vibrational energy     487608.9 (Joules/Mol)
                                  116.54132 (Kcal/Mol)
 Warning -- explicit consideration of  16 degrees of freedom as
           vibrations may cause significant error
 Vibrational temperatures:     86.84   117.59   157.86   208.56   307.43
          (Kelvin)            327.21   400.45   408.13   476.53   516.45
                              578.68   652.30   722.82   784.15   836.72
                              863.99  1097.39  1147.72  1235.61  1258.78
                             1282.44  1331.10  1411.04  1424.08  1461.51
                             1477.94  1515.65  1537.32  1575.26  1651.90
                             1715.52  1716.01  1776.29  1817.83  1854.21
                             1977.28  1997.45  2060.15  2113.00  2158.35
                             2188.68  2199.91  2218.71  2242.15  2331.31
                             2384.75  2650.68  4173.14  4409.06  4502.36
                             4567.73  4604.24  4623.60  4638.19  4645.63
                             4678.67  4702.40  4741.85  4749.13

 Zero-point correction=                           0.185720 (Hartree/Particle)
 Thermal correction to Energy=                    0.196277
 Thermal correction to Enthalpy=                  0.197221
 Thermal correction to Gibbs Free Energy=         0.149631
 Sum of electronic and zero-point Energies=           -461.993306
 Sum of electronic and thermal Energies=              -461.982750
 Sum of electronic and thermal Enthalpies=            -461.981806
 Sum of electronic and thermal Free Energies=         -462.029395

                     E (Thermal)             CV                S
                      KCal/Mol        Cal/Mol-Kelvin    Cal/Mol-Kelvin
 Total                  123.165             39.142            100.160
 Electronic               0.000              0.000              0.000
 Translational            0.889              2.981             40.723
 Rotational               0.889              2.981             29.919
 Vibrational            121.388             33.180             29.519
 Vibration     1          0.597              1.973              4.445
 Vibration     2          0.600              1.962              3.849
 Vibration     3          0.606              1.941              3.274
 Vibration     4          0.616              1.908              2.737
 Vibration     5          0.644              1.820              2.012
 Vibration     6          0.651              1.799              1.899
 Vibration     7          0.679              1.714              1.544
 Vibration     8          0.682              1.704              1.511
 Vibration     9          0.714              1.613              1.254
 Vibration    10          0.734              1.557              1.127
 Vibration    11          0.768              1.465              0.955
 Vibration    12          0.812              1.353              0.786
 Vibration    13          0.858              1.245              0.652
 Vibration    14          0.900              1.151              0.555
 Vibration    15          0.938              1.071              0.482
 Vibration    16          0.959              1.031              0.449

 Optimization completed.
    -- Stationary point found.
 Normal termination of Gaussian 16 at Tue Jun 21 10:25:24 2022.
