 Gaussian 16, Revision C.01,
 Gaussian 16:  AS64L-G16RevC.01  3-Jul-2019

 -------------------------------------------------
 # opt=(calcfc,ts,noeigentest) freq 6-31g(d) m062x
 -------------------------------------------------

 -------------------
 Title Card Required
 -------------------
 Symbolic Z-matrix:
 Charge =  0 Multiplicity = 1

 SCF Done:  E(RM062X) =  -462.167998188     A.U. after   16 cycles
 SCF Done:  E(RM062X) =  -462.179500265     A.U. after   16 cycles
 SCF Done:  E(RM062X) =  -462.182397052     A.U. after   17 cycles
 SCF Done:  E(RM062X) =  -462.177489753     A.U. after   17 cycles
 SCF Done:  E(RM062X) =  -462.183040722     A.U. after   16 cycles
 SCF Done:  E(RM062X) =  -462.183324792     A.U. after   16 cycles
 SCF Done:  E(RM062X) =  -462.183752367     A.U. after   15 cycles
 SCF Done:  E(RM062X) =  -462.183899465     A.U. after   13 cycles
 SCF Done:  E(RM062X) =  -462.184021209     A.U. after   15 cycles
 SCF Done:  E(RM062X) =  -462.183496705     A.U. after   15 cycles
 SCF Done:  E(RM062X) =  -462.183805382     A.U. after   14 cycles
 SCF Done:  E(RM062X) =  -462.183619267     A.U. after   14 cycles
 SCF Done:  E(RM062X) =  -462.183862361     A.U. after   14 cycles
 SCF Done:  E(RM062X) =  -462.183944434     A.U. after   13 cycles
 SCF Done:  E(RM062X) =  -462.183948370     A.U. after   10 cycles
 SCF Done:  E(RM062X) =  -462.183948144     A.U. after    9 cycles
 SCF Done:  E(RM062X) =  -462.183947988     A.U. after   10 cycles
 SCF Done:  E(RM062X) =  -462.183948594     A.U. after   10 cycles
 SCF Done:  E(RM062X) =  -462.183948743     A.U. after    9 cycles
 Optimization completed.
    -- Stationary point found.
 Normal termination of Gaussian 16 at Tue Jun 21 10:21:45 2022.

 --------------------------------------------------------------------
 #N Geom=AllCheck Guess=TCheck SCRF=Check GenChk RM062X/6-31G(d) Freq
 --------------------------------------------------------------------

 Structure from the checkpoint file:  "DATS_14_exo_ii.chk"
 -------------------
 Title Card Required
 -------------------
 Charge =  0 Multiplicity = 1

                         Standard orientation:
 ---------------------------------------------------------------------
 Center     Atomic      Atomic             Coordinates (Angstroms)
 Number     Number       Type             X           Y           Z
 ---------------------------------------------------------------------
      1          6           0       -0.654719   -1.219530   -0.756811
      2          6           0        0.530045   -0.669520    0.758717
      3          6           0       -0.715460    1.857766    0.239837
      4          6           0       -1.614890   -0.248376   -1.045171
      5          1           0        0.089304   -1.458374   -1.511647
      6          1           0       -0.998247   -2.065619   -0.166366
      7          1           0       -1.568728    0.354823   -1.943970
      8          6           0        1.243486    0.418868    0.267372
      9          6           0        0.596492    1.644818   -0.040171
     10          1           0        1.055430   -1.586852    1.001663
     11          1           0       -1.211317    2.755636   -0.116057
     12          1           0        1.157058    2.344049   -0.654569
     13          1           0       -0.330986   -0.475700    1.391452
     14          1           0       -1.250991    1.281209    0.983867
     15          8           0        2.514081    0.345092   -0.194949
     16          6           0        3.234399   -0.848195    0.032763
     17          1           0        2.782283   -1.693587   -0.499024
     18          1           0        4.237984   -0.673201   -0.353601
     19          1           0        3.285988   -1.080578    1.102666
     20          6           0       -2.774297   -0.155623   -0.187132
     21          8           0       -2.853190   -0.703705    0.906919
     22          1           0       -3.605244    0.485849   -0.546595
 ---------------------------------------------------------------------

 SCF Done:  E(RM062X) =  -462.183948743     A.U. after    1 cycles

 The electronic state is 1-A.
 Alpha  occ. eigenvalues --  -19.68588 -19.60313 -10.62511 -10.61101 -10.60594
 Alpha  occ. eigenvalues --  -10.56524 -10.56511 -10.56052 -10.55383 -10.53233
 Alpha  occ. eigenvalues --   -1.20604  -1.12742  -0.92682  -0.86593  -0.83270
 Alpha  occ. eigenvalues --   -0.81501  -0.72530  -0.70896  -0.63083  -0.60877
 Alpha  occ. eigenvalues --   -0.58863  -0.57759  -0.55980  -0.55409  -0.51404
 Alpha  occ. eigenvalues --   -0.49061  -0.48289  -0.47566  -0.45955  -0.44922
 Alpha  occ. eigenvalues --   -0.44488  -0.43002  -0.42001  -0.40756  -0.37343
 Alpha  occ. eigenvalues --   -0.31727  -0.30009  -0.24190
 Alpha virt. eigenvalues --   -0.01970   0.03649   0.10606   0.12665   0.14318
 Alpha virt. eigenvalues --    0.16298   0.17044   0.17602   0.18220   0.19410
 Alpha virt. eigenvalues --    0.19919   0.20853   0.21900   0.23002   0.24800

 Mulliken charges:
               1
     1  C   -0.347136
     2  C   -0.487222
     3  C   -0.377950
     4  C   -0.195671
     5  H    0.174330
     6  H    0.213208
     7  H    0.158225
     8  C    0.428254
     9  C   -0.149277
    10  H    0.179823
    11  H    0.178285
    12  H    0.178031
    13  H    0.228774
    14  H    0.205846
    15  O   -0.506415
    16  C   -0.245715
    17  H    0.165218
    18  H    0.193816
    19  H    0.170568
    20  C    0.207802
    21  O   -0.484500
    22  H    0.111706
 Sum of Mulliken charges =  -0.00000

 Dipole moment (field-independent basis, Debye):
    X=              3.4832    Y=              0.0319    Z=             -1.4390  Tot=              3.7688
 Quadrupole moment (field-independent basis, Debye-Ang):
   XX=            -62.6737   YY=            -56.8759   ZZ=            -62.3503
   XY=             -9.5701   XZ=              5.2992   YZ=             -0.3306

  Exact polarizability:     143.817      -0.602      94.637       3.664      -3.825      70.174
 Approx polarizability:     177.548       6.966     126.314       4.489      -6.049      96.358

 ******    1 imaginary frequencies (negative Signs) ******

                      1                      2                      3
                      A                      A                      A
 Frequencies --   -486.6370                67.5089                90.6718
 Red. masses --      8.7165                 4.4804                 3.2846
 Frc consts  --      1.2162                 0.0120                 0.0159
 IR Inten    --     50.1376                 1.1886                 0.9991

                      4                      5                      6
                      A                      A                      A
 Frequencies --    119.4596               146.5377               187.7311
 Red. masses --      6.6620                 4.3878                 3.9437
 Frc consts  --      0.0560                 0.0555                 0.0819
 IR Inten    --      3.2701                15.3097                30.3884

                      7                      8                      9
                      A                      A                      A
 Frequencies --    217.4058               282.6956               284.2559
 Red. masses --      2.5099                 1.7879                 1.4618
 Frc consts  --      0.0699                 0.0842                 0.0696
 IR Inten    --     13.7032                 2.3556                 0.3213

                     10                     11                     12
                      A                      A                      A
 Frequencies --    315.8088               342.2335               412.8895
 Red. masses --      2.9789                 2.9795                 2.8442
 Frc consts  --      0.1750                 0.2056                 0.2857
 IR Inten    --     20.3059                 3.4664                21.2409

                     13                     14                     15
                      A                      A                      A
 Frequencies --    484.4872               498.0906               554.7390
 Red. masses --      3.0807                 3.7901                 2.2286
 Frc consts  --      0.4261                 0.5540                 0.4041
 IR Inten    --     26.4804                 2.5073                 8.1164

                     16                     17                     18
                      A                      A                      A
 Frequencies --    576.3979               686.9433               760.3740
 Red. masses --      1.8586                 2.0782                 1.6716
 Frc consts  --      0.3638                 0.5778                 0.5694
 IR Inten    --      7.4205                14.0232                 3.7025

                     19                     20                     21
                      A                      A                      A
 Frequencies --    785.0953               865.1416               883.7586
 Red. masses --      1.5813                 2.2792                 1.4054
 Frc consts  --      0.5743                 1.0051                 0.6467
 IR Inten    --     16.8912                13.0975                12.5018

                     22                     23                     24
                      A                      A                      A
 Frequencies --    929.0087               966.9627               993.0655
 Red. masses --      1.2349                 1.7309                 1.4138
 Frc consts  --      0.6280                 0.9536                 0.8215
 IR Inten    --     44.5887                74.8209                 2.9878

                     25                     26                     27
                      A                      A                      A
 Frequencies --   1006.9520              1023.2361              1028.0304
 Red. masses --      1.1411                 1.5365                 1.5991
 Frc consts  --      0.6817                 0.9478                 0.9957
 IR Inten    --     20.6426                 7.1502                39.6751

                     28                     29                     30
                      A                      A                      A
 Frequencies --   1041.4269              1083.9981              1121.6253
 Red. masses --      1.3759                 1.4699                 1.2154
 Frc consts  --      0.8792                 1.0176                 0.9008
 IR Inten    --     53.5219                 9.3816                 3.3119

                     31                     32                     33
                      A                      A                      A
 Frequencies --   1133.2814              1150.5479              1191.6389
 Red. masses --      1.4131                 2.7060                 1.2772
 Frc consts  --      1.0693                 2.1105                 1.0685
 IR Inten    --     15.6042                73.9453                 1.2808

                     34                     35                     36
                      A                      A                      A
 Frequencies --   1235.4018              1261.6712              1292.9643
 Red. masses --      1.4181                 1.4875                 1.4645
 Frc consts  --      1.2752                 1.3950                 1.4425
 IR Inten    --      5.0161                36.8753                78.5456

                     37                     38                     39
                      A                      A                      A
 Frequencies --   1388.9235              1417.4546              1439.8286
 Red. masses --      2.4689                 1.3443                 1.3436
 Frc consts  --      2.8062                 1.5913                 1.6411
 IR Inten    --    332.2262                39.2694                65.7738

                     40                     41                     42
                      A                      A                      A
 Frequencies --   1460.1338              1502.3066              1523.0064
 Red. masses --      1.4500                 1.4740                 1.4529
 Frc consts  --      1.8214                 1.9601                 1.9855
 IR Inten    --     18.5941                20.2490                26.2127

                     43                     44                     45
                      A                      A                      A
 Frequencies --   1529.4602              1536.3177              1545.5966
 Red. masses --      1.1016                 1.2718                 1.3831
 Frc consts  --      1.5182                 1.7686                 1.9467
 IR Inten    --      8.8191               177.2236                90.1285

                     46                     47                     48
                      A                      A                      A
 Frequencies --   1620.9075              1669.4738              1778.7601
 Red. masses --      2.7588                 3.3086                 7.8163
 Frc consts  --      4.2705                 5.4331                14.5708
 IR Inten    --     15.9214               110.7645               221.3288

                     49                     50                     51
                      A                      A                      A
 Frequencies --   2978.3657              3067.6900              3134.5271
 Red. masses --      1.0844                 1.0345                 1.1065
 Frc consts  --      5.6677                 5.7360                 6.4053
 IR Inten    --    184.0890                38.8800                30.9448

                     52                     53                     54
                      A                      A                      A
 Frequencies --   3174.8460              3197.8948              3203.0631
 Red. masses --      1.0567                 1.0614                 1.1003
 Frc consts  --      6.2756                 6.3952                 6.6508
 IR Inten    --      6.1470                10.4515                14.9094

                     55                     56                     57
                      A                      A                      A
 Frequencies --   3211.9432              3228.9261              3252.9901
 Red. masses --      1.0598                 1.0922                 1.1018
 Frc consts  --      6.4417                 6.7094                 6.8696
 IR Inten    --      2.5773                 4.4479                 3.6022

                     58                     59                     60
                      A                      A                      A
 Frequencies --   3266.1394              3278.2618              3305.2242
 Red. masses --      1.1059                 1.1139                 1.1157
 Frc consts  --      6.9509                 7.0534                 7.1810
 IR Inten    --      4.7043                 2.4474                 2.6824

 - Thermochemistry -
 -------------------
 Temperature   298.150 Kelvin.  Pressure   1.00000 Atm.
 Atom     1 has atomic number  6 and mass  12.00000

 Molecular mass:   140.08373 amu.
 Principal axes and moments of inertia in atomic units:
                           1         2         3
     Eigenvalues --   721.780292258.630762587.54469
           X            0.99934  -0.03506   0.00899
           Y            0.03520   0.99925  -0.01590
           Z           -0.00843   0.01621   0.99983
 This molecule is an asymmetric top.
 Rotational symmetry number  1.
 Warning -- assumption of classical behavior for rotation
           may cause significant error
 Rotational temperatures (Kelvin)      0.12000     0.03835     0.03347
 Rotational constants (GHZ):           2.50040     0.79904     0.69747
    1 imaginary frequencies ignored.
 Zero-point vibrational energy     488878.4 (Joules/Mol)
                                  116.84473 (Kcal/Mol)
 Warning -- explicit consideration of  15 degrees of freedom as
           vibrations may cause significant error
 Vibrational temperatures:     97.13   130.46   171.88   210.84   270.10
          (Kelvin)            312.80   406.74   408.98   454.38   492.40
                              594.06   697.07   716.64   798.15   829.31
                              988.36  1094.01  1129.58  1244.75  1271.53
                             1336.64  1391.24  1428.80  1448.78  1472.21
                             1479.11  1498.38  1559.63  1613.77  1630.54
                             1655.38  1714.50  1777.47  1815.26  1860.29
                             1998.35  2039.40  2071.59  2100.81  2161.48
                             2191.27  2200.55  2210.42  2223.77  2332.12
                             2402.00  2559.24  4285.20  4413.72  4509.89
                             4567.90  4601.06  4608.49  4621.27  4645.70
                             4680.33  4699.25  4716.69  4755.48

 Zero-point correction=                           0.186204 (Hartree/Particle)
 Thermal correction to Energy=                    0.196697
 Thermal correction to Enthalpy=                  0.197642
 Thermal correction to Gibbs Free Energy=         0.150320
 Sum of electronic and zero-point Energies=           -461.997745
 Sum of electronic and thermal Energies=              -461.987251
 Sum of electronic and thermal Enthalpies=            -461.986307
 Sum of electronic and thermal Free Energies=         -462.033629

                     E (Thermal)             CV                S
                      KCal/Mol        Cal/Mol-Kelvin    Cal/Mol-Kelvin
 Total                  123.429             38.826             99.596
 Electronic               0.000              0.000              0.000
 Translational            0.889              2.981             40.723
 Rotational               0.889              2.981             29.824
 Vibrational            121.652             32.865             29.050
 Vibration     1          0.598              1.970              4.225
 Vibration     2          0.602              1.956              3.646
 Vibration     3          0.609              1.933              3.109
 Vibration     4          0.617              1.906              2.717
 Vibration     5          0.632              1.857              2.250
 Vibration     6          0.646              1.815              1.981
 Vibration     7          0.682              1.706              1.517
 Vibration     8          0.683              1.703              1.508
 Vibration     9          0.703              1.643              1.332
 Vibration    10          0.721              1.591              1.202
 Vibration    11          0.777              1.442              0.916
 Vibration    12          0.841              1.284              0.698
 Vibration    13          0.854              1.254              0.663
 Vibration    14          0.910              1.129              0.534
 Vibration    15          0.933              1.082              0.492

 Optimization completed.
    -- Stationary point found.
 Normal termination of Gaussian 16 at Tue Jun 21 10:23:15 2022.
