                         Program Version 5.0.3 -  RELEASE  -
|  1> # DATS_14_endo_ii_DLPNO
|  2> %maxcore 4000
|  3> %pal nprocs 16 end
|  4> ! pal16 DLPNO-CCSD(T) def2-tzvpp def2-tzvpp/C
|  5>
|  6> * xyz 0 1
|  7>  C  -0.89226700  -1.19754700   1.22413500
|  8>  C   0.53989900   0.15155200   1.45771800
|  9>  C  -1.27080300   1.94248500   0.09121700
| 10>  C  -1.93239900  -0.75972500   0.40044500
| 11>  H  -0.22452700  -1.92637300   0.77552800
| 12>  H  -1.09180100  -1.35357100   2.28151300
| 13>  H  -2.88379600  -0.40991600   0.78487000
| 14>  C   0.83956200   0.72275700   0.21759700
| 15>  C  -0.06012600   1.63119900  -0.42068100
| 16>  H   1.30065200  -0.43974600   1.95655400
| 17>  H  -1.97655300   2.53419500  -0.48242300
| 18>  H   0.20499400   1.92002200  -1.43329400
| 19>  H  -0.03163700   0.77979600   2.13022800
| 20>  H  -1.55330700   1.71590700   1.11134900
| 21>  O   1.91147400   0.41251800  -0.52955700
| 22>  C   2.67275400  -0.71878000  -0.15909700
| 23>  H   2.03490700  -1.60703900  -0.12207100
| 24>  H   3.42413200  -0.84190900  -0.93808400
| 25>  H   3.17129100  -0.56852100   0.80605800
| 26>  C  -1.67371700  -0.79088600  -1.01096300
| 27>  O  -0.56233400  -1.05866400  -1.46810300
| 28>  H  -2.50490800  -0.52000900  -1.69116700
| 29> **                         ****END OF INPUT****

CARTESIAN COORDINATES (ANGSTROEM)
---------------------------------
  C     -0.892267   -1.197547    1.224135
  C      0.539899    0.151552    1.457718
  C     -1.270803    1.942485    0.091217
  C     -1.932399   -0.759725    0.400445
  H     -0.224527   -1.926373    0.775528
  H     -1.091801   -1.353571    2.281513
  H     -2.883796   -0.409916    0.784870
  C      0.839562    0.722757    0.217597
  C     -0.060126    1.631199   -0.420681
  H      1.300652   -0.439746    1.956554
  H     -1.976553    2.534195   -0.482423
  H      0.204994    1.920022   -1.433294
  H     -0.031637    0.779796    2.130228
  H     -1.553307    1.715907    1.111349
  O      1.911474    0.412518   -0.529557
  C      2.672754   -0.718780   -0.159097
  H      2.034907   -1.607039   -0.122071
  H      3.424132   -0.841909   -0.938084
  H      3.171291   -0.568521    0.806058
  C     -1.673717   -0.790886   -1.010963
  O     -0.562334   -1.058664   -1.468103
  H     -2.504908   -0.520009   -1.691167

 Total Charge           Charge          ....    0
 Multiplicity           Mult            ....    1
 Number of Electrons    NEL             ....   76
 Basis Dimension        Dim             ....  478

ORBITAL ENERGIES
----------------

  NO   OCC          E(Eh)            E(eV)
   0   2.0000     -20.596821      -560.4680
   1   2.0000     -20.497172      -557.7564
   2   2.0000     -11.331597      -308.3484
   3   2.0000     -11.286692      -307.1265
   4   2.0000     -11.285467      -307.0932
   5   2.0000     -11.258271      -306.3531
   6   2.0000     -11.256662      -306.3093
   7   2.0000     -11.237809      -305.7963
   8   2.0000     -11.237223      -305.7804
   9   2.0000     -11.197073      -304.6878
  10   2.0000      -1.430019       -38.9128
  11   2.0000      -1.335196       -36.3325
  12   2.0000      -1.111103       -30.2347
  13   2.0000      -1.043676       -28.3999
  14   2.0000      -1.000957       -27.2374
  15   2.0000      -0.967924       -26.3386
  16   2.0000      -0.871471       -23.7139
  17   2.0000      -0.849237       -23.1089
  18   2.0000      -0.753020       -20.4907
  19   2.0000      -0.727881       -19.8066
  20   2.0000      -0.697710       -18.9856
  21   2.0000      -0.685748       -18.6601
  22   2.0000      -0.666016       -18.1232
  23   2.0000      -0.660042       -17.9607
  24   2.0000      -0.616919       -16.7872
  25   2.0000      -0.600842       -16.3497
  26   2.0000      -0.582202       -15.8425
  27   2.0000      -0.565172       -15.3791
  28   2.0000      -0.556923       -15.1547
  29   2.0000      -0.545835       -14.8529
  30   2.0000      -0.531153       -14.4534
  31   2.0000      -0.515090       -14.0163
  32   2.0000      -0.504730       -13.7344
  33   2.0000      -0.492557       -13.4032
  34   2.0000      -0.433250       -11.7893
  35   2.0000      -0.389287       -10.5930
  36   2.0000      -0.370532       -10.0827
  37   2.0000      -0.269282        -7.3275
  38   0.0000       0.061040         1.6610
  39   0.0000       0.132168         3.5965
  40   0.0000       0.140864         3.8331
  41   0.0000       0.152582         4.1520
  42   0.0000       0.164884         4.4867

MULLIKEN ATOMIC CHARGES
-----------------------
   0 C :   -0.037310
   1 C :   -0.253213
   2 C :   -0.121291
   3 C :   -0.273719
   4 H :    0.111712
   5 H :    0.108274
   6 H :    0.082732
   7 C :    0.359345
   8 C :   -0.131282
   9 H :    0.103855
  10 H :    0.098763
  11 H :    0.099354
  12 H :    0.100576
  13 H :    0.082624
  14 O :   -0.351963
  15 C :   -0.010259
  16 H :    0.089436
  17 H :    0.093929
  18 H :    0.064240
  19 C :    0.309871
  20 O :   -0.564783
  21 H :    0.039109
Sum of atomic charges:   -0.0000000

LOEWDIN ATOMIC CHARGES
----------------------
   0 C :    0.068980
   1 C :    0.017506
   2 C :    0.098277
   3 C :   -0.122977
   4 H :    0.017697
   5 H :    0.013319
   6 H :   -0.012713
   7 C :   -0.143156
   8 C :   -0.031695
   9 H :    0.002942
  10 H :    0.006849
  11 H :    0.029167
  12 H :    0.011104
  13 H :    0.001813
  14 O :    0.266081
  15 C :   -0.020070
  16 H :    0.009063
  17 H :    0.010369
  18 H :   -0.001647
  19 C :   -0.208549
  20 O :   -0.012999
  21 H :    0.000639

  Mayer bond orders larger than 0.100000
B(  0-C ,  1-C ) :   0.4351 B(  0-C ,  3-C ) :   1.3685 B(  0-C ,  4-H ) :   0.9920
B(  0-C ,  5-H ) :   1.0086 B(  1-C ,  7-C ) :   1.3731 B(  1-C ,  9-H ) :   1.0081
B(  1-C , 12-H ) :   0.9988 B(  2-C ,  3-C ) :   0.1324 B(  2-C ,  8-C ) :   1.7189
B(  2-C , 10-H ) :   1.0011 B(  2-C , 13-H ) :   1.0160 B(  3-C ,  6-H ) :   1.0150
B(  3-C , 19-C ) :   1.1901 B(  7-C ,  8-C ) :   1.1769 B(  7-C , 14-O ) :   1.0996
B(  8-C , 11-H ) :   0.9938 B( 14-O , 15-C ) :   0.8792 B( 15-C , 16-H ) :   0.9927
B( 15-C , 17-H ) :   1.0037 B( 15-C , 18-H ) :   1.0015 B( 19-C , 20-O ) :   1.7833
B( 19-C , 21-H ) :   1.0517

E(0)                                       ...   -459.678432691
E(0)                                       ...   -459.678432691
E(CORR)(strong-pairs)                      ...     -1.850396350
E(CORR)(weak-pairs)                        ...     -0.010776729
E(CORR)(corrected)                         ...     -1.861173079
E(TOT)                                     ...   -461.539605770
E(CCSD(T))                                 ...   -461.625395729
FINAL SINGLE POINT ENERGY      -461.625395729464

DIPOLE MOMENT
-------------
                                X             Y             Z
Electronic contribution:      0.25930       1.20057      -3.95352
Nuclear contribution   :     -0.11127      -0.74059       5.24126
                        -----------------------------------------
Total Dipole Moment    :      0.14803       0.45998       1.28774
                        -----------------------------------------
Magnitude (a.u.)       :      1.37542
Magnitude (Debye)      :      3.49604

Rotational constants in cm-1:     0.058603     0.038155     0.034722
Rotational constants in MHz :  1756.880655  1143.864449  1040.938982

                             ****ORCA TERMINATED NORMALLY****
TOTAL RUN TIME: 0 days 0 hours 6 minutes 9 seconds 552 msec
