                         Program Version 5.0.3 -  RELEASE  -
|  1> # DATS_13_exo_i_DLPNO
|  2> %maxcore 4000
|  3> %pal nprocs 16 end
|  4> ! pal16 DLPNO-CCSD(T) def2-tzvpp def2-tzvpp/C
|  5>
|  6> * xyz 0 1
|  7>  C  -1.30393800   1.12833700   1.00928800
|  8>  C  -0.21994000   1.64245600  -0.73680400
|  9>  C   0.12966900  -1.18038100  -0.70518400
| 10>  C  -1.40651800  -0.24926200   1.04859700
| 11>  H  -0.69210400   1.64713100   1.73868800
| 12>  H  -2.14868500   1.68128900   0.60835000
| 13>  H  -0.84722300  -0.84727900   1.75867700
| 14>  C   1.02113000   1.07437100  -0.53753000
| 15>  C   1.17988100  -0.33180800  -0.46570500
| 16>  H  -0.29974000   2.72588900  -0.74259800
| 17>  H   0.26434400  -2.24254400  -0.52857200
| 18>  H  -0.99901600   1.12839500  -1.29335800
| 19>  H  -0.68451600  -0.88081300  -1.34905300
| 20>  C  -2.47435400  -0.89377600   0.28351900
| 21>  O  -3.11937500  -0.32424300  -0.57941800
| 22>  H  -2.65792300  -1.96472300   0.50494400
| 23>  O   2.32424700  -0.91706700   0.00172800
| 24>  C   3.35387300  -0.08621300   0.48607400
| 25>  H   4.14118900  -0.75556100   0.83332100
| 26>  H   3.75733600   0.56084600  -0.30235200
| 27>  H   3.01350400   0.53647000   1.32304900
| 28>  H   1.83504600   1.71904100  -0.22310800
| 29> **                         ****END OF INPUT****

CARTESIAN COORDINATES (ANGSTROEM)
---------------------------------
  C     -1.303938    1.128337    1.009288
  C     -0.219940    1.642456   -0.736804
  C      0.129669   -1.180381   -0.705184
  C     -1.406518   -0.249262    1.048597
  H     -0.692104    1.647131    1.738688
  H     -2.148685    1.681289    0.608350
  H     -0.847223   -0.847279    1.758677
  C      1.021130    1.074371   -0.537530
  C      1.179881   -0.331808   -0.465705
  H     -0.299740    2.725889   -0.742598
  H      0.264344   -2.242544   -0.528572
  H     -0.999016    1.128395   -1.293358
  H     -0.684516   -0.880813   -1.349053
  C     -2.474354   -0.893776    0.283519
  O     -3.119375   -0.324243   -0.579418
  H     -2.657923   -1.964723    0.504944
  O      2.324247   -0.917067    0.001728
  C      3.353873   -0.086213    0.486074
  H      4.141189   -0.755561    0.833321
  H      3.757336    0.560846   -0.302352
  H      3.013504    0.536470    1.323049
  H      1.835046    1.719041   -0.223108

 Total Charge           Charge          ....    0
 Multiplicity           Mult            ....    1
 Number of Electrons    NEL             ....   76
 Basis Dimension        Dim             ....  478

ORBITAL ENERGIES
----------------

  NO   OCC          E(Eh)            E(eV)
   0   2.0000     -20.582751      -560.0851
   1   2.0000     -20.531105      -558.6798
   2   2.0000     -11.318996      -308.0055
   3   2.0000     -11.297689      -307.4258
   4   2.0000     -11.287260      -307.1420
   5   2.0000     -11.255003      -306.2642
   6   2.0000     -11.249800      -306.1226
   7   2.0000     -11.243277      -305.9451
   8   2.0000     -11.234293      -305.7007
   9   2.0000     -11.233138      -305.6692
  10   2.0000      -1.411392       -38.4059
  11   2.0000      -1.370675       -37.2980
  12   2.0000      -1.109160       -30.1818
  13   2.0000      -1.051178       -28.6040
  14   2.0000      -1.011102       -27.5135
  15   2.0000      -0.932870       -25.3847
  16   2.0000      -0.887457       -24.1489
  17   2.0000      -0.864931       -23.5360
  18   2.0000      -0.746543       -20.3145
  19   2.0000      -0.732346       -19.9282
  20   2.0000      -0.708525       -19.2799
  21   2.0000      -0.689144       -18.7526
  22   2.0000      -0.667973       -18.1765
  23   2.0000      -0.658304       -17.9134
  24   2.0000      -0.623841       -16.9756
  25   2.0000      -0.601177       -16.3589
  26   2.0000      -0.582276       -15.8445
  27   2.0000      -0.580449       -15.7948
  28   2.0000      -0.567295       -15.4369
  29   2.0000      -0.544448       -14.8152
  30   2.0000      -0.536700       -14.6044
  31   2.0000      -0.527094       -14.3430
  32   2.0000      -0.504744       -13.7348
  33   2.0000      -0.492563       -13.4033
  34   2.0000      -0.455474       -12.3941
  35   2.0000      -0.414788       -11.2869
  36   2.0000      -0.318930        -8.6785
  37   2.0000      -0.307406        -8.3649
  38   0.0000       0.061976         1.6865
  39   0.0000       0.114337         3.1113
  40   0.0000       0.128915         3.5080
  41   0.0000       0.156731         4.2649
  42   0.0000       0.163411         4.4466

MULLIKEN ATOMIC CHARGES
-----------------------
   0 C :   -0.152239
   1 C :   -0.120185
   2 C :   -0.245902
   3 C :   -0.141822
   4 H :    0.101537
   5 H :    0.144438
   6 H :    0.104743
   7 C :   -0.209315
   8 C :    0.306208
   9 H :    0.107641
  10 H :    0.098064
  11 H :    0.117207
  12 H :    0.123508
  13 C :    0.287984
  14 O :   -0.495133
  15 H :    0.059092
  16 O :   -0.379147
  17 C :   -0.007584
  18 H :    0.089497
  19 H :    0.066234
  20 H :    0.062320
  21 H :    0.082853
Sum of atomic charges:   -0.0000000

LOEWDIN ATOMIC CHARGES
----------------------
   0 C :    0.066789
   1 C :    0.073655
   2 C :    0.072358
   3 C :   -0.065598
   4 H :    0.004025
   5 H :    0.021068
   6 H :    0.003900
   7 C :   -0.041100
   8 C :   -0.222319
   9 H :    0.008137
  10 H :    0.002594
  11 H :    0.018997
  12 H :    0.004112
  13 C :   -0.174573
  14 O :    0.025901
  15 H :    0.007291
  16 O :    0.221272
  17 C :   -0.044732
  18 H :    0.007705
  19 H :    0.000124
  20 H :   -0.001487
  21 H :    0.011879

  Mayer bond orders larger than 0.100000
B(  0-C ,  1-C ) :   0.2888 B(  0-C ,  3-C ) :   1.4987 B(  0-C ,  4-H ) :   1.0131
B(  0-C ,  5-H ) :   0.9897 B(  1-C ,  7-C ) :   1.5311 B(  1-C ,  9-H ) :   1.0028
B(  1-C , 11-H ) :   1.0095 B(  2-C ,  3-C ) :   0.2292 B(  2-C ,  8-C ) :   1.5277
B(  2-C , 10-H ) :   1.0004 B(  2-C , 12-H ) :   1.0180 B(  3-C ,  6-H ) :   1.0053
B(  3-C , 13-C ) :   1.0271 B(  7-C ,  8-C ) :   1.2318 B(  7-C , 21-H ) :   1.0135
B(  8-C , 16-O ) :   1.0336 B( 13-C , 14-O ) :   1.8939 B( 13-C , 15-H ) :   1.0541
B( 16-O , 17-C ) :   0.9037 B( 17-C , 18-H ) :   1.0036 B( 17-C , 19-H ) :   0.9996
B( 17-C , 20-H ) :   0.9974

E(0)                                       ...   -459.674547448
E(0)                                       ...   -459.674547448
E(CORR)(strong-pairs)                      ...     -1.852104530
E(CORR)(weak-pairs)                        ...     -0.008676643
E(CORR)(corrected)                         ...     -1.860781173
E(TOT)                                     ...   -461.535328621
E(CCSD(T))                                 ...   -461.620325053
FINAL SINGLE POINT ENERGY      -461.620325053295

DIPOLE MOMENT
-------------
                                X             Y             Z
Electronic contribution:     -3.45851      -2.83936      -1.50390
Nuclear contribution   :      4.75467       3.34843       2.36109
                        -----------------------------------------
Total Dipole Moment    :      1.29616       0.50907       0.85719
                        -----------------------------------------
Magnitude (a.u.)       :      1.63523
Magnitude (Debye)      :      4.15641

Rotational constants in cm-1:     0.083885     0.025918     0.023492
Rotational constants in MHz :  2514.820123   777.005058   704.264175

                             ****ORCA TERMINATED NORMALLY****
TOTAL RUN TIME: 0 days 0 hours 5 minutes 51 seconds 648 msec
