                         Program Version 5.0.3 -  RELEASE  -
|  1> # DATS_13_endo_iii_DLPNO
|  2> %maxcore 4000
|  3> %pal nprocs 16 end
|  4> ! pal16 DLPNO-CCSD(T) def2-tzvpp def2-tzvpp/C
|  5>
|  6> * xyz 0 1
|  7>  C   1.59241900   1.38589700  -0.72605400
|  8>  C  -0.25736100   2.30720600   0.02492900
|  9>  C   0.02382800  -0.10437100   1.50130400
| 10>  C   1.87377400   0.26925000   0.03470700
| 11>  H   1.19423500   1.25507000  -1.72792600
| 12>  H   2.13947100   2.30805100  -0.55959100
| 13>  H   2.55628200   0.32003700   0.87846000
| 14>  C  -1.17243700   1.28583500  -0.09280400
| 15>  C  -1.02252400   0.07651600   0.62918100
| 16>  H  -0.35997200   3.18421500  -0.60727700
| 17>  H   0.19458500  -1.08863200   1.92401900
| 18>  H   0.27920700   2.47636500   0.95116200
| 19>  H   0.46760300   0.73843600   2.01103900
| 20>  C   1.61082100  -1.07561600  -0.50449200
| 21>  O   2.13019700  -2.09794700  -0.11888800
| 22>  H   0.87324900  -1.08458700  -1.34097300
| 23>  O  -1.76309700  -1.03814300   0.35628500
| 24>  C  -2.62266800  -1.01811400  -0.76035400
| 25>  H  -3.06759500  -2.01166200  -0.81338200
| 26>  H  -3.42011100  -0.27389800  -0.64524000
| 27>  H  -2.07354000  -0.81796000  -1.68945300
| 28>  H  -1.87532100   1.32366700  -0.91851900
| 29> **                         ****END OF INPUT****

CARTESIAN COORDINATES (ANGSTROEM)
---------------------------------
  C      1.592419    1.385897   -0.726054
  C     -0.257361    2.307206    0.024929
  C      0.023828   -0.104371    1.501304
  C      1.873774    0.269250    0.034707
  H      1.194235    1.255070   -1.727926
  H      2.139471    2.308051   -0.559591
  H      2.556282    0.320037    0.878460
  C     -1.172437    1.285835   -0.092804
  C     -1.022524    0.076516    0.629181
  H     -0.359972    3.184215   -0.607277
  H      0.194585   -1.088632    1.924019
  H      0.279207    2.476365    0.951162
  H      0.467603    0.738436    2.011039
  C      1.610821   -1.075616   -0.504492
  O      2.130197   -2.097947   -0.118888
  H      0.873249   -1.084587   -1.340973
  O     -1.763097   -1.038143    0.356285
  C     -2.622668   -1.018114   -0.760354
  H     -3.067595   -2.011662   -0.813382
  H     -3.420111   -0.273898   -0.645240
  H     -2.073540   -0.817960   -1.689453
  H     -1.875321    1.323667   -0.918519

 Total Charge           Charge          ....    0
 Multiplicity           Mult            ....    1
 Number of Electrons    NEL             ....   76
 Basis Dimension        Dim             ....  478

ORBITAL ENERGIES
----------------

  NO   OCC          E(Eh)            E(eV)
   0   2.0000     -20.583932      -560.1173
   1   2.0000     -20.529115      -558.6256
   2   2.0000     -11.318447      -307.9906
   3   2.0000     -11.300539      -307.5033
   4   2.0000     -11.287557      -307.1501
   5   2.0000     -11.261429      -306.4391
   6   2.0000     -11.251535      -306.1698
   7   2.0000     -11.244586      -305.9808
   8   2.0000     -11.244137      -305.9685
   9   2.0000     -11.238303      -305.8098
  10   2.0000      -1.413290       -38.4576
  11   2.0000      -1.370449       -37.2918
  12   2.0000      -1.113828       -30.3088
  13   2.0000      -1.058025       -28.7903
  14   2.0000      -1.014980       -27.6190
  15   2.0000      -0.933996       -25.4153
  16   2.0000      -0.882013       -24.0008
  17   2.0000      -0.861719       -23.4486
  18   2.0000      -0.773303       -21.0427
  19   2.0000      -0.737232       -20.0611
  20   2.0000      -0.710014       -19.3205
  21   2.0000      -0.675297       -18.3758
  22   2.0000      -0.660080       -17.9617
  23   2.0000      -0.648638       -17.6503
  24   2.0000      -0.643586       -17.5129
  25   2.0000      -0.603526       -16.4228
  26   2.0000      -0.587592       -15.9892
  27   2.0000      -0.577816       -15.7232
  28   2.0000      -0.570061       -15.5122
  29   2.0000      -0.554409       -15.0862
  30   2.0000      -0.541649       -14.7390
  31   2.0000      -0.529175       -14.3996
  32   2.0000      -0.509069       -13.8525
  33   2.0000      -0.492788       -13.4094
  34   2.0000      -0.457319       -12.4443
  35   2.0000      -0.410189       -11.1618
  36   2.0000      -0.322126        -8.7655
  37   2.0000      -0.313055        -8.5187
  38   0.0000       0.069979         1.9042
  39   0.0000       0.120716         3.2849
  40   0.0000       0.126272         3.4360
  41   0.0000       0.141634         3.8541
  42   0.0000       0.161472         4.3939

MULLIKEN ATOMIC CHARGES
-----------------------
   0 C :   -0.218485
   1 C :   -0.127463
   2 C :   -0.184877
   3 C :   -0.063968
   4 H :    0.097728
   5 H :    0.117880
   6 H :    0.112031
   7 C :   -0.179214
   8 C :    0.228897
   9 H :    0.106650
  10 H :    0.129122
  11 H :    0.095552
  12 H :    0.097224
  13 C :    0.312340
  14 O :   -0.455134
  15 H :    0.014544
  16 O :   -0.377166
  17 C :   -0.005676
  18 H :    0.093741
  19 H :    0.067694
  20 H :    0.055134
  21 H :    0.083446
Sum of atomic charges:    0.0000000

LOEWDIN ATOMIC CHARGES
----------------------
   0 C :    0.039989
   1 C :    0.067210
   2 C :    0.080968
   3 C :   -0.046198
   4 H :    0.003763
   5 H :    0.005820
   6 H :    0.014980
   7 C :   -0.051760
   8 C :   -0.226535
   9 H :    0.005835
  10 H :    0.013490
  11 H :    0.008504
  12 H :   -0.000284
  13 C :   -0.174418
  14 O :    0.048002
  15 H :    0.007527
  16 O :    0.227770
  17 C :   -0.043755
  18 H :    0.009404
  19 H :   -0.000112
  20 H :   -0.002983
  21 H :    0.012784

  Mayer bond orders larger than 0.100000
B(  0-C ,  1-C ) :   0.2814 B(  0-C ,  3-C ) :   1.5204 B(  0-C ,  4-H ) :   1.0203
B(  0-C ,  5-H ) :   1.0013 B(  1-C ,  7-C ) :   1.5662 B(  1-C ,  9-H ) :   1.0028
B(  1-C , 11-H ) :   1.0140 B(  2-C ,  3-C ) :   0.2410 B(  2-C ,  8-C ) :   1.5494
B(  2-C , 10-H ) :   0.9866 B(  2-C , 12-H ) :   1.0329 B(  3-C ,  6-H ) :   0.9829
B(  3-C , 13-C ) :   0.9576 B(  3-C , 15-H ) :  -0.1108 B(  7-C ,  8-C ) :   1.2409
B(  7-C , 21-H ) :   1.0156 B(  8-C , 16-O ) :   1.0360 B( 13-C , 14-O ) :   1.9753
B( 13-C , 15-H ) :   1.0634 B( 16-O , 17-C ) :   0.9011 B( 17-C , 18-H ) :   1.0035
B( 17-C , 19-H ) :   1.0016 B( 17-C , 20-H ) :   0.9947

E(0)                                       ...   -459.673744971
E(0)                                       ...   -459.673744971
E(CORR)(strong-pairs)                      ...     -1.851471392
E(CORR)(weak-pairs)                        ...     -0.009708109
E(CORR)(corrected)                         ...     -1.861179501
E(TOT)                                     ...   -461.534924471
E(CCSD(T))                                 ...   -461.619645520
FINAL SINGLE POINT ENERGY      -461.619645519899

DIPOLE MOMENT
-------------
                                X             Y             Z
Electronic contribution:      2.23921      -4.64424       1.99429
Nuclear contribution   :     -3.14229       6.39396      -2.58006
                        -----------------------------------------
Total Dipole Moment    :     -0.90308       1.74972      -0.58577
                        -----------------------------------------
Magnitude (a.u.)       :      2.05431
Magnitude (Debye)      :      5.22165

Rotational constants in cm-1:     0.052102     0.037211     0.026484
Rotational constants in MHz :  1561.986182  1115.566293   793.970403

                             ****ORCA TERMINATED NORMALLY****
TOTAL RUN TIME: 0 days 0 hours 5 minutes 36 seconds 355 msec
