                         Program Version 5.0.3 -  RELEASE  -
|  1> # DATS_13_exo_iii_DLPNO
|  2> %maxcore 4000
|  3> %pal nprocs 16 end
|  4> ! pal16 DLPNO-CCSD(T) def2-tzvpp def2-tzvpp/C
|  5>
|  6> * xyz 0 1
|  7>  C  -1.21343300   1.45407900   0.86092300
|  8>  C   0.33799100   2.02528800  -0.61059800
|  9>  C  -0.06160700  -0.76282800  -0.97828300
| 10>  C  -1.45372000   0.09898000   0.74348700
| 11>  H  -0.63434500   1.83723400   1.69201200
| 12>  H  -1.92319900   2.15387400   0.42433300
| 13>  H  -1.00834400  -0.61935800   1.42340400
| 14>  C   1.34233600   1.11966700  -0.35842000
| 15>  C   1.13740300  -0.27271500  -0.52267700
| 16>  H   0.50449600   3.07620400  -0.39355600
| 17>  H  -0.25039400  -1.83051300  -0.95074700
| 18>  H  -0.41534700   1.83127800  -1.36496700
| 19>  H  -0.66805000  -0.17668400  -1.65484200
| 20>  C  -2.63517300  -0.35906200  -0.00385700
| 21>  O  -3.10054100  -1.47524100   0.03435600
| 22>  H  -3.09763900   0.42917500  -0.64386600
| 23>  O   2.01392000  -1.20419200  -0.04198300
| 24>  C   3.14847000  -0.75946200   0.66542100
| 25>  H   3.69482100  -1.65859300   0.95047300
| 26>  H   3.79436100  -0.13080000   0.04032800
| 27>  H   2.87145700  -0.20368900   1.57011400
| 28>  H   2.21154900   1.46365100   0.19236200
| 29> **                         ****END OF INPUT****

CARTESIAN COORDINATES (ANGSTROEM)
---------------------------------
  C     -1.213433    1.454079    0.860923
  C      0.337991    2.025288   -0.610598
  C     -0.061607   -0.762828   -0.978283
  C     -1.453720    0.098980    0.743487
  H     -0.634345    1.837234    1.692012
  H     -1.923199    2.153874    0.424333
  H     -1.008344   -0.619358    1.423404
  C      1.342336    1.119667   -0.358420
  C      1.137403   -0.272715   -0.522677
  H      0.504496    3.076204   -0.393556
  H     -0.250394   -1.830513   -0.950747
  H     -0.415347    1.831278   -1.364967
  H     -0.668050   -0.176684   -1.654842
  C     -2.635173   -0.359062   -0.003857
  O     -3.100541   -1.475241    0.034356
  H     -3.097639    0.429175   -0.643866
  O      2.013920   -1.204192   -0.041983
  C      3.148470   -0.759462    0.665421
  H      3.694821   -1.658593    0.950473
  H      3.794361   -0.130800    0.040328
  H      2.871457   -0.203689    1.570114
  H      2.211549    1.463651    0.192362

 Total Charge           Charge          ....    0
 Multiplicity           Mult            ....    1
 Number of Electrons    NEL             ....   76
 Basis Dimension        Dim             ....  478

ORBITAL ENERGIES
----------------

  NO   OCC          E(Eh)            E(eV)
   0   2.0000     -20.583695      -560.1108
   1   2.0000     -20.536174      -558.8177
   2   2.0000     -11.322124      -308.0907
   3   2.0000     -11.299058      -307.4630
   4   2.0000     -11.287525      -307.1492
   5   2.0000     -11.260135      -306.4038
   6   2.0000     -11.252264      -306.1897
   7   2.0000     -11.244630      -305.9819
   8   2.0000     -11.243166      -305.9421
   9   2.0000     -11.236691      -305.7659
  10   2.0000      -1.412513       -38.4364
  11   2.0000      -1.376059       -37.4445
  12   2.0000      -1.112678       -30.2775
  13   2.0000      -1.059335       -28.8260
  14   2.0000      -1.013839       -27.5880
  15   2.0000      -0.933490       -25.4015
  16   2.0000      -0.879093       -23.9213
  17   2.0000      -0.865072       -23.5398
  18   2.0000      -0.773751       -21.0548
  19   2.0000      -0.737848       -20.0779
  20   2.0000      -0.709436       -19.3047
  21   2.0000      -0.675468       -18.3804
  22   2.0000      -0.659201       -17.9378
  23   2.0000      -0.653438       -17.7810
  24   2.0000      -0.644047       -17.5254
  25   2.0000      -0.604292       -16.4436
  26   2.0000      -0.584367       -15.9014
  27   2.0000      -0.582086       -15.8394
  28   2.0000      -0.568108       -15.4590
  29   2.0000      -0.551303       -15.0017
  30   2.0000      -0.539813       -14.6891
  31   2.0000      -0.533100       -14.5064
  32   2.0000      -0.510893       -13.9021
  33   2.0000      -0.493498       -13.4288
  34   2.0000      -0.457737       -12.4557
  35   2.0000      -0.414833       -11.2882
  36   2.0000      -0.322981        -8.7888
  37   2.0000      -0.310297        -8.4436
  38   0.0000       0.069588         1.8936
  39   0.0000       0.115007         3.1295
  40   0.0000       0.127528         3.4702
  41   0.0000       0.142058         3.8656
  42   0.0000       0.161361         4.3909

MULLIKEN ATOMIC CHARGES
-----------------------
   0 C :   -0.214428
   1 C :   -0.120696
   2 C :   -0.208844
   3 C :   -0.062637
   4 H :    0.104422
   5 H :    0.112368
   6 H :    0.114741
   7 C :   -0.182854
   8 C :    0.274795
   9 H :    0.105941
  10 H :    0.125367
  11 H :    0.087151
  12 H :    0.104153
  13 C :    0.262001
  14 O :   -0.447147
  15 H :    0.029682
  16 O :   -0.375756
  17 C :   -0.010018
  18 H :    0.091564
  19 H :    0.066142
  20 H :    0.062187
  21 H :    0.081866
Sum of atomic charges:    0.0000000

LOEWDIN ATOMIC CHARGES
----------------------
   0 C :    0.042349
   1 C :    0.065456
   2 C :    0.076417
   3 C :   -0.046657
   4 H :    0.002530
   5 H :    0.005345
   6 H :    0.015940
   7 C :   -0.048701
   8 C :   -0.221814
   9 H :    0.005108
  10 H :    0.012473
  11 H :    0.006420
  12 H :    0.002180
  13 C :   -0.177500
  14 O :    0.054399
  15 H :    0.005185
  16 O :    0.224870
  17 C :   -0.043779
  18 H :    0.008475
  19 H :    0.000275
  20 H :   -0.001715
  21 H :    0.012745

  Mayer bond orders larger than 0.100000
B(  0-C ,  1-C ) :   0.2687 B(  0-C ,  3-C ) :   1.5063 B(  0-C ,  4-H ) :   1.0078
B(  0-C ,  5-H ) :   1.0157 B(  1-C ,  7-C ) :   1.5673 B(  1-C ,  9-H ) :   1.0025
B(  1-C , 11-H ) :   1.0152 B(  2-C ,  3-C ) :   0.2608 B(  2-C ,  8-C ) :   1.5208
B(  2-C , 10-H ) :   0.9911 B(  2-C , 12-H ) :   1.0291 B(  3-C ,  6-H ) :   0.9890
B(  3-C , 13-C ) :   0.9651 B(  3-C , 15-H ) :  -0.1103 B(  7-C ,  8-C ) :   1.2375
B(  7-C , 21-H ) :   1.0135 B(  8-C , 16-O ) :   1.0395 B( 13-C , 14-O ) :   1.9694
B( 13-C , 15-H ) :   1.0669 B( 16-O , 17-C ) :   0.9035 B( 17-C , 18-H ) :   1.0034
B( 17-C , 19-H ) :   0.9997 B( 17-C , 20-H ) :   0.9971

E(0)                                       ...   -459.673350046
E(0)                                       ...   -459.673350046
E(CORR)(strong-pairs)                      ...     -1.851172640
E(CORR)(weak-pairs)                        ...     -0.009078824
E(CORR)(corrected)                         ...     -1.860251463
E(TOT)                                     ...   -461.533601509
E(CCSD(T))                                 ...   -461.618211850
FINAL SINGLE POINT ENERGY      -461.618211849584

DIPOLE MOMENT
-------------
                                X             Y             Z
Electronic contribution:     -3.85360      -4.55543      -1.06273
Nuclear contribution   :      5.15438       6.24111       1.30831
                        -----------------------------------------
Total Dipole Moment    :      1.30078       1.68568       0.24558
                        -----------------------------------------
Magnitude (a.u.)       :      2.14333
Magnitude (Debye)      :      5.44791

Rotational constants in cm-1:     0.067448     0.027345     0.022357
Rotational constants in MHz :  2022.051599   819.775372   670.245820

                             ****ORCA TERMINATED NORMALLY****
TOTAL RUN TIME: 0 days 0 hours 5 minutes 29 seconds 634 msec
