                         Program Version 5.0.3 -  RELEASE  -
|  1> # DATS_13_exo_iv_DLPNO
|  2> %maxcore 4000
|  3> %pal nprocs 16 end
|  4> ! pal16 DLPNO-CCSD(T) def2-tzvpp def2-tzvpp/C
|  5>
|  6> * xyz 0 1
|  7>  C  -1.49000700   1.35276700   0.78971100
|  8>  C  -0.04948900   2.26887700  -0.48841400
|  9>  C   0.28556000  -0.51879600  -0.86851900
| 10>  C  -1.39836200  -0.02929700   0.68309700
| 11>  H  -1.12631000   1.84527300   1.68331100
| 12>  H  -2.32131000   1.85285900   0.29621200
| 13>  H  -0.87040600  -0.61618300   1.42733100
| 14>  C   1.13094600   1.63631600  -0.15659400
| 15>  C   1.29020100   0.24447600  -0.31622100
| 16>  H  -0.16060800   3.32600200  -0.26490200
| 17>  H   0.30319200  -1.60205200  -0.87127100
| 18>  H  -0.63613300   1.92846100  -1.33496300
| 19>  H  -0.36041200  -0.06661100  -1.60894500
| 20>  C  -2.36977800  -0.75823900  -0.14215200
| 21>  O  -2.54719800  -1.95625800  -0.12355000
| 22>  H  -2.95817300  -0.10703900  -0.83068000
| 23>  O   2.36979700  -0.27000900   0.33923700
| 24>  C   2.56658000  -1.66411800   0.25863300
| 25>  H   3.51871800  -1.86630300   0.74904200
| 26>  H   1.76973900  -2.21198300   0.77641400
| 27>  H   2.61037300  -1.99852200  -0.78510900
| 28>  H   1.85663700   2.13432000   0.48081800
| 29> **                         ****END OF INPUT****

CARTESIAN COORDINATES (ANGSTROEM)
---------------------------------
  C     -1.490007    1.352767    0.789711
  C     -0.049489    2.268877   -0.488414
  C      0.285560   -0.518796   -0.868519
  C     -1.398362   -0.029297    0.683097
  H     -1.126310    1.845273    1.683311
  H     -2.321310    1.852859    0.296212
  H     -0.870406   -0.616183    1.427331
  C      1.130946    1.636316   -0.156594
  C      1.290201    0.244476   -0.316221
  H     -0.160608    3.326002   -0.264902
  H      0.303192   -1.602052   -0.871271
  H     -0.636133    1.928461   -1.334963
  H     -0.360412   -0.066611   -1.608945
  C     -2.369778   -0.758239   -0.142152
  O     -2.547198   -1.956258   -0.123550
  H     -2.958173   -0.107039   -0.830680
  O      2.369797   -0.270009    0.339237
  C      2.566580   -1.664118    0.258633
  H      3.518718   -1.866303    0.749042
  H      1.769739   -2.211983    0.776414
  H      2.610373   -1.998522   -0.785109
  H      1.856637    2.134320    0.480818

 Total Charge           Charge          ....    0
 Multiplicity           Mult            ....    1
 Number of Electrons    NEL             ....   76
 Basis Dimension        Dim             ....  478

ORBITAL ENERGIES
----------------

  NO   OCC          E(Eh)            E(eV)
   0   2.0000     -20.585246      -560.1530
   1   2.0000     -20.536083      -558.8152
   2   2.0000     -11.322793      -308.1089
   3   2.0000     -11.299461      -307.4740
   4   2.0000     -11.283750      -307.0465
   5   2.0000     -11.258385      -306.3562
   6   2.0000     -11.252926      -306.2077
   7   2.0000     -11.244209      -305.9705
   8   2.0000     -11.243442      -305.9496
   9   2.0000     -11.238993      -305.8286
  10   2.0000      -1.414368       -38.4869
  11   2.0000      -1.376013       -37.4432
  12   2.0000      -1.114500       -30.3271
  13   2.0000      -1.058494       -28.8031
  14   2.0000      -0.999129       -27.1877
  15   2.0000      -0.960537       -26.1376
  16   2.0000      -0.876817       -23.8594
  17   2.0000      -0.850027       -23.1304
  18   2.0000      -0.774317       -21.0702
  19   2.0000      -0.742322       -20.1996
  20   2.0000      -0.705900       -19.2085
  21   2.0000      -0.676293       -18.4029
  22   2.0000      -0.659001       -17.9323
  23   2.0000      -0.653118       -17.7722
  24   2.0000      -0.642965       -17.4960
  25   2.0000      -0.614767       -16.7287
  26   2.0000      -0.582859       -15.8604
  27   2.0000      -0.577421       -15.7124
  28   2.0000      -0.567518       -15.4430
  29   2.0000      -0.542213       -14.7544
  30   2.0000      -0.536863       -14.6088
  31   2.0000      -0.528343       -14.3769
  32   2.0000      -0.515938       -14.0394
  33   2.0000      -0.500015       -13.6061
  34   2.0000      -0.457960       -12.4617
  35   2.0000      -0.415788       -11.3142
  36   2.0000      -0.322732        -8.7820
  37   2.0000      -0.310756        -8.4561
  38   0.0000       0.066593         1.8121
  39   0.0000       0.123659         3.3649
  40   0.0000       0.137656         3.7458
  41   0.0000       0.144133         3.9221
  42   0.0000       0.155728         4.2376

MULLIKEN ATOMIC CHARGES
-----------------------
   0 C :   -0.224214
   1 C :   -0.088199
   2 C :   -0.241548
   3 C :   -0.041702
   4 H :    0.111120
   5 H :    0.113294
   6 H :    0.104630
   7 C :   -0.187691
   8 C :    0.276196
   9 H :    0.104735
  10 H :    0.121235
  11 H :    0.087216
  12 H :    0.092210
  13 C :    0.263443
  14 O :   -0.456484
  15 H :    0.031818
  16 O :   -0.382035
  17 C :   -0.002124
  18 H :    0.088625
  19 H :    0.067382
  20 H :    0.068573
  21 H :    0.093519
Sum of atomic charges:   -0.0000000

LOEWDIN ATOMIC CHARGES
----------------------
   0 C :    0.041847
   1 C :    0.058686
   2 C :    0.059675
   3 C :   -0.047626
   4 H :    0.005159
   5 H :    0.007005
   6 H :    0.013189
   7 C :   -0.027954
   8 C :   -0.226055
   9 H :    0.006673
  10 H :    0.005754
  11 H :    0.007131
  12 H :    0.005930
  13 C :   -0.179263
  14 O :    0.046850
  15 H :    0.005302
  16 O :    0.223741
  17 C :   -0.037291
  18 H :    0.006608
  19 H :    0.001185
  20 H :    0.002408
  21 H :    0.021046

  Mayer bond orders larger than 0.100000
B(  0-C ,  1-C ) :   0.3161 B(  0-C ,  3-C ) :   1.4605 B(  0-C ,  4-H ) :   1.0071
B(  0-C ,  5-H ) :   1.0154 B(  1-C ,  7-C ) :   1.5254 B(  1-C ,  9-H ) :   1.0014
B(  1-C , 11-H ) :   1.0110 B(  2-C ,  3-C ) :   0.2789 B(  2-C ,  8-C ) :   1.5041
B(  2-C , 10-H ) :   0.9993 B(  2-C , 12-H ) :   1.0102 B(  3-C ,  6-H ) :   0.9884
B(  3-C , 13-C ) :   0.9656 B(  3-C , 15-H ) :  -0.1118 B(  7-C ,  8-C ) :   1.2933
B(  7-C , 21-H ) :   1.0061 B(  8-C , 16-O ) :   1.0304 B( 13-C , 14-O ) :   1.9611
B( 13-C , 15-H ) :   1.0686 B( 16-O , 17-C ) :   0.8970 B( 17-C , 18-H ) :   1.0028
B( 17-C , 19-H ) :   0.9966 B( 17-C , 20-H ) :   0.9989

E(0)                                       ...   -459.674035344
E(0)                                       ...   -459.674035344
E(CORR)(strong-pairs)                      ...     -1.852795544
E(CORR)(weak-pairs)                        ...     -0.009325864
E(CORR)(corrected)                         ...     -1.862121408
E(TOT)                                     ...   -461.536156752
E(CCSD(T))                                 ...   -461.621164965
FINAL SINGLE POINT ENERGY      -461.621164964591

DIPOLE MOMENT
-------------
                                X             Y             Z
Electronic contribution:     -1.11303      -1.54752       0.24233
Nuclear contribution   :      1.65204       2.63014      -0.28443
                        -----------------------------------------
Total Dipole Moment    :      0.53901       1.08262      -0.04210
                        -----------------------------------------
Magnitude (a.u.)       :      1.21012
Magnitude (Debye)      :      3.07587

Rotational constants in cm-1:     0.055256     0.032793     0.022968
Rotational constants in MHz :  1656.520300   983.112406   688.565573

                             ****ORCA TERMINATED NORMALLY****
TOTAL RUN TIME: 0 days 0 hours 6 minutes 15 seconds 932 msec
