                         Program Version 5.0.3 -  RELEASE  -
|  1> # DATS_14_exo_iii_DLPNO
|  2> %maxcore 4000
|  3> %pal nprocs 16 end
|  4> ! pal16 DLPNO-CCSD(T) def2-tzvpp def2-tzvpp/C
|  5>
|  6> * xyz 0 1
|  7>  C  -0.81250700  -1.49055100  -0.53518700
|  8>  C   0.68805300  -1.22174700   0.98202000
|  9>  C  -0.50034600   1.35457500   0.72420300
| 10>  C  -1.55452800  -0.34057800  -0.74281600
| 11>  H  -0.08713800  -1.81056600  -1.27496100
| 12>  H  -1.25960600  -2.29647400   0.04383900
| 13>  H  -1.34070700   0.33618000  -1.56231800
| 14>  C   1.39998700  -0.14090000   0.49956000
| 15>  C   0.79267200   1.13609200   0.35150600
| 16>  H   1.18971700  -2.18368500   1.01236800
| 17>  H  -1.00931600   2.27627600   0.46156300
| 18>  H   1.28560400   1.88518500  -0.25906400
| 19>  H  -0.08352500  -1.06225700   1.72252800
| 20>  H  -0.99023300   0.75469400   1.48101600
| 21>  O   2.61027700  -0.43706500  -0.04658300
| 22>  C   3.31305200   0.57574000  -0.73475800
| 23>  H   3.50987000   1.43792800  -0.08724400
| 24>  H   4.26021200   0.12871500  -1.03591900
| 25>  H   2.77071100   0.90898300  -1.62758400
| 26>  C  -2.83237800  -0.16354000  -0.05816700
| 27>  O  -3.63195500   0.72504800  -0.26802000
| 28>  H  -3.03619300  -0.93339600   0.72443100
| 29> **                         ****END OF INPUT****

CARTESIAN COORDINATES (ANGSTROEM)
---------------------------------
  C     -0.812507   -1.490551   -0.535187
  C      0.688053   -1.221747    0.982020
  C     -0.500346    1.354575    0.724203
  C     -1.554528   -0.340578   -0.742816
  H     -0.087138   -1.810566   -1.274961
  H     -1.259606   -2.296474    0.043839
  H     -1.340707    0.336180   -1.562318
  C      1.399987   -0.140900    0.499560
  C      0.792672    1.136092    0.351506
  H      1.189717   -2.183685    1.012368
  H     -1.009316    2.276276    0.461563
  H      1.285604    1.885185   -0.259064
  H     -0.083525   -1.062257    1.722528
  H     -0.990233    0.754694    1.481016
  O      2.610277   -0.437065   -0.046583
  C      3.313052    0.575740   -0.734758
  H      3.509870    1.437928   -0.087244
  H      4.260212    0.128715   -1.035919
  H      2.770711    0.908983   -1.627584
  C     -2.832378   -0.163540   -0.058167
  O     -3.631955    0.725048   -0.268020
  H     -3.036193   -0.933396    0.724431

 Total Charge           Charge          ....    0
 Multiplicity           Mult            ....    1
 Number of Electrons    NEL             ....   76
 Basis Dimension        Dim             ....  478

ORBITAL ENERGIES
----------------

  NO   OCC          E(Eh)            E(eV)
   0   2.0000     -20.596900      -560.4701
   1   2.0000     -20.523143      -558.4631
   2   2.0000     -11.316013      -307.9244
   3   2.0000     -11.312302      -307.8234
   4   2.0000     -11.294718      -307.3449
   5   2.0000     -11.264967      -306.5353
   6   2.0000     -11.262853      -306.4778
   7   2.0000     -11.241910      -305.9079
   8   2.0000     -11.236535      -305.7617
   9   2.0000     -11.222296      -305.3742
  10   2.0000      -1.425696       -38.7952
  11   2.0000      -1.363145       -37.0931
  12   2.0000      -1.115555       -30.3558
  13   2.0000      -1.055707       -28.7272
  14   2.0000      -1.020201       -27.7611
  15   2.0000      -0.941979       -25.6325
  16   2.0000      -0.875769       -23.8309
  17   2.0000      -0.867069       -23.5941
  18   2.0000      -0.766693       -20.8628
  19   2.0000      -0.743745       -20.2383
  20   2.0000      -0.713739       -19.4218
  21   2.0000      -0.682159       -18.5625
  22   2.0000      -0.668268       -18.1845
  23   2.0000      -0.646346       -17.5880
  24   2.0000      -0.637950       -17.3595
  25   2.0000      -0.606592       -16.5062
  26   2.0000      -0.588359       -16.0101
  27   2.0000      -0.583705       -15.8834
  28   2.0000      -0.560567       -15.2538
  29   2.0000      -0.556889       -15.1537
  30   2.0000      -0.537877       -14.6364
  31   2.0000      -0.532636       -14.4938
  32   2.0000      -0.515946       -14.0396
  33   2.0000      -0.500421       -13.6171
  34   2.0000      -0.452986       -12.3264
  35   2.0000      -0.404784       -11.0147
  36   2.0000      -0.350952        -9.5499
  37   2.0000      -0.291073        -7.9205
  38   0.0000       0.071906         1.9567
  39   0.0000       0.112334         3.0568
  40   0.0000       0.129405         3.5213
  41   0.0000       0.144132         3.9220
  42   0.0000       0.163062         4.4371

MULLIKEN ATOMIC CHARGES
-----------------------
   0 C :   -0.150438
   1 C :   -0.203818
   2 C :   -0.109804
   3 C :   -0.128695
   4 H :    0.113884
   5 H :    0.115427
   6 H :    0.098708
   7 C :    0.301995
   8 C :   -0.192077
   9 H :    0.108500
  10 H :    0.125722
  11 H :    0.085321
  12 H :    0.098981
  13 H :    0.087512
  14 O :   -0.373327
  15 C :   -0.015704
  16 H :    0.072999
  17 H :    0.092932
  18 H :    0.069247
  19 C :    0.246650
  20 O :   -0.472571
  21 H :    0.028556
Sum of atomic charges:    0.0000000

LOEWDIN ATOMIC CHARGES
----------------------
   0 C :    0.066800
   1 C :    0.036123
   2 C :    0.116936
   3 C :   -0.082896
   4 H :    0.010884
   5 H :    0.013222
   6 H :    0.005359
   7 C :   -0.193766
   8 C :   -0.066099
   9 H :    0.005405
  10 H :    0.015801
  11 H :    0.013692
  12 H :    0.002304
  13 H :    0.009259
  14 O :    0.232733
  15 C :   -0.036122
  16 H :    0.002817
  17 H :    0.008852
  18 H :    0.000313
  19 C :   -0.194874
  20 O :    0.030718
  21 H :    0.002540

  Mayer bond orders larger than 0.100000
B(  0-C ,  1-C ) :   0.3198 B(  0-C ,  3-C ) :   1.4774 B(  0-C ,  4-H ) :   1.0028
B(  0-C ,  5-H ) :   1.0084 B(  1-C ,  7-C ) :   1.4805 B(  1-C ,  9-H ) :   0.9954
B(  1-C , 12-H ) :   1.0248 B(  2-C ,  3-C ) :   0.1923 B(  2-C ,  8-C ) :   1.6384
B(  2-C , 10-H ) :   0.9961 B(  2-C , 13-H ) :   1.0203 B(  3-C ,  6-H ) :   0.9971
B(  3-C , 19-C ) :   1.0164 B(  3-C , 21-H ) :  -0.1166 B(  7-C ,  8-C ) :   1.2038
B(  7-C , 14-O ) :   1.0585 B(  8-C , 11-H ) :   1.0101 B( 14-O , 15-C ) :   0.8928
B( 15-C , 16-H ) :   0.9997 B( 15-C , 17-H ) :   1.0031 B( 15-C , 18-H ) :   0.9975
B( 19-C , 20-O ) :   1.9382 B( 19-C , 21-H ) :   1.0712

E(0)                                       ...   -459.678343160
E(0)                                       ...   -459.678343160
E(CORR)(strong-pairs)                      ...     -1.848887796
E(CORR)(weak-pairs)                        ...     -0.008960769
E(CORR)(corrected)                         ...     -1.857848565
E(TOT)                                     ...   -461.536191725
E(CCSD(T))                                 ...   -461.620654105
FINAL SINGLE POINT ENERGY      -461.620654105238

DIPOLE MOMENT
-------------
                                X             Y             Z
Electronic contribution:     -3.49740       0.21909       0.46460
Nuclear contribution   :      5.28782      -0.56396      -0.41370
                        -----------------------------------------
Total Dipole Moment    :      1.79042      -0.34486       0.05090
                        -----------------------------------------
Magnitude (a.u.)       :      1.82404
Magnitude (Debye)      :      4.63634

Rotational constants in cm-1:     0.092570     0.022899     0.020842
Rotational constants in MHz :  2775.167896   686.508416   624.841807

                             ****ORCA TERMINATED NORMALLY****
TOTAL RUN TIME: 0 days 0 hours 6 minutes 25 seconds 38 msec
