                         Program Version 5.0.3 -  RELEASE  -
|  1> # DATS_14_exo_ii_DLPNO
|  2> %maxcore 4000
|  3> %pal nprocs 16 end
|  4> ! pal16 DLPNO-CCSD(T) def2-tzvpp def2-tzvpp/C
|  5>
|  6> * xyz 0 1
|  7>  C  -0.65471900  -1.21953000  -0.75681100
|  8>  C   0.53004500  -0.66952000   0.75871700
|  9>  C  -0.71546000   1.85776600   0.23983700
| 10>  C  -1.61489000  -0.24837600  -1.04517100
| 11>  H   0.08930400  -1.45837400  -1.51164700
| 12>  H  -0.99824700  -2.06561900  -0.16636600
| 13>  H  -1.56872800   0.35482300  -1.94397000
| 14>  C   1.24348600   0.41886800   0.26737200
| 15>  C   0.59649200   1.64481800  -0.04017100
| 16>  H   1.05543000  -1.58685200   1.00166300
| 17>  H  -1.21131700   2.75563600  -0.11605700
| 18>  H   1.15705800   2.34404900  -0.65456900
| 19>  H  -0.33098600  -0.47570000   1.39145200
| 20>  H  -1.25099100   1.28120900   0.98386700
| 21>  O   2.51408100   0.34509200  -0.19494900
| 22>  C   3.23439900  -0.84819500   0.03276300
| 23>  H   2.78228300  -1.69358700  -0.49902400
| 24>  H   4.23798400  -0.67320100  -0.35360100
| 25>  H   3.28598800  -1.08057800   1.10266600
| 26>  C  -2.77429700  -0.15562300  -0.18713200
| 27>  O  -2.85319000  -0.70370500   0.90691900
| 28>  H  -3.60524400   0.48584900  -0.54659500
| 29> **                         ****END OF INPUT****

CARTESIAN COORDINATES (ANGSTROEM)
---------------------------------
  C     -0.654719   -1.219530   -0.756811
  C      0.530045   -0.669520    0.758717
  C     -0.715460    1.857766    0.239837
  C     -1.614890   -0.248376   -1.045171
  H      0.089304   -1.458374   -1.511647
  H     -0.998247   -2.065619   -0.166366
  H     -1.568728    0.354823   -1.943970
  C      1.243486    0.418868    0.267372
  C      0.596492    1.644818   -0.040171
  H      1.055430   -1.586852    1.001663
  H     -1.211317    2.755636   -0.116057
  H      1.157058    2.344049   -0.654569
  H     -0.330986   -0.475700    1.391452
  H     -1.250991    1.281209    0.983867
  O      2.514081    0.345092   -0.194949
  C      3.234399   -0.848195    0.032763
  H      2.782283   -1.693587   -0.499024
  H      4.237984   -0.673201   -0.353601
  H      3.285988   -1.080578    1.102666
  C     -2.774297   -0.155623   -0.187132
  O     -2.853190   -0.703705    0.906919
  H     -3.605244    0.485849   -0.546595

 Total Charge           Charge          ....    0
 Multiplicity           Mult            ....    1
 Number of Electrons    NEL             ....   76
 Basis Dimension        Dim             ....  478

ORBITAL ENERGIES
----------------

  NO   OCC          E(Eh)            E(eV)
   0   2.0000     -20.605405      -560.7016
   1   2.0000     -20.509346      -558.0877
   2   2.0000     -11.324944      -308.1674
   3   2.0000     -11.299899      -307.4859
   4   2.0000     -11.297507      -307.4208
   5   2.0000     -11.261890      -306.4516
   6   2.0000     -11.259250      -306.3798
   7   2.0000     -11.239906      -305.8534
   8   2.0000     -11.237063      -305.7760
   9   2.0000     -11.205636      -304.9209
  10   2.0000      -1.434881       -39.0451
  11   2.0000      -1.348068       -36.6828
  12   2.0000      -1.116064       -30.3697
  13   2.0000      -1.045955       -28.4619
  14   2.0000      -1.003683       -27.3116
  15   2.0000      -0.974341       -26.5132
  16   2.0000      -0.876388       -23.8477
  17   2.0000      -0.855123       -23.2691
  18   2.0000      -0.755216       -20.5505
  19   2.0000      -0.733138       -19.9497
  20   2.0000      -0.706424       -19.2228
  21   2.0000      -0.691413       -18.8143
  22   2.0000      -0.672463       -18.2987
  23   2.0000      -0.666484       -18.1359
  24   2.0000      -0.621523       -16.9125
  25   2.0000      -0.603961       -16.4346
  26   2.0000      -0.587836       -15.9958
  27   2.0000      -0.579022       -15.7560
  28   2.0000      -0.551332       -15.0025
  29   2.0000      -0.546107       -14.8603
  30   2.0000      -0.538379       -14.6500
  31   2.0000      -0.527683       -14.3590
  32   2.0000      -0.505863       -13.7652
  33   2.0000      -0.503511       -13.7012
  34   2.0000      -0.451072       -12.2743
  35   2.0000      -0.397545       -10.8177
  36   2.0000      -0.361405        -9.8343
  37   2.0000      -0.277601        -7.5539
  38   0.0000       0.065099         1.7714
  39   0.0000       0.117419         3.1951
  40   0.0000       0.132161         3.5963
  41   0.0000       0.155407         4.2288
  42   0.0000       0.173469         4.7203

MULLIKEN ATOMIC CHARGES
-----------------------
   0 C :   -0.066351
   1 C :   -0.200137
   2 C :   -0.109911
   3 C :   -0.231495
   4 H :    0.101000
   5 H :    0.137499
   6 H :    0.089745
   7 C :    0.270317
   8 C :   -0.166287
   9 H :    0.100510
  10 H :    0.095758
  11 H :    0.096954
  12 H :    0.126905
  13 H :    0.109013
  14 O :   -0.364593
  15 C :   -0.007710
  16 H :    0.066465
  17 H :    0.096165
  18 H :    0.075376
  19 C :    0.270885
  20 O :   -0.538109
  21 H :    0.048001
Sum of atomic charges:   -0.0000000

LOEWDIN ATOMIC CHARGES
----------------------
   0 C :    0.076333
   1 C :    0.030203
   2 C :    0.119822
   3 C :   -0.112946
   4 H :    0.008528
   5 H :    0.027485
   6 H :   -0.008625
   7 C :   -0.171371
   8 C :   -0.050914
   9 H :    0.002404
  10 H :    0.008371
  11 H :    0.021358
  12 H :    0.022414
  13 H :    0.011367
  14 O :    0.243048
  15 C :   -0.028503
  16 H :    0.001458
  17 H :    0.008922
  18 H :    0.004045
  19 C :   -0.202783
  20 O :   -0.013225
  21 H :    0.002611

  Mayer bond orders larger than 0.100000
B(  0-C ,  1-C ) :   0.3779 B(  0-C ,  3-C ) :   1.3880 B(  0-C ,  4-H ) :   1.0081
B(  0-C ,  5-H ) :   0.9846 B(  1-C ,  7-C ) :   1.4034 B(  1-C ,  9-H ) :   1.0082
B(  1-C , 12-H ) :   0.9952 B(  2-C ,  3-C ) :   0.1957 B(  2-C ,  8-C ) :   1.6613
B(  2-C , 10-H ) :   1.0025 B(  2-C , 13-H ) :   1.0033 B(  3-C ,  6-H ) :   1.0138
B(  3-C ,  7-C ) :   0.1013 B(  3-C , 19-C ) :   1.1277 B(  7-C ,  8-C ) :   1.2224
B(  7-C , 14-O ) :   1.0695 B(  8-C , 11-H ) :   1.0008 B( 14-O , 15-C ) :   0.8877
B( 15-C , 16-H ) :   0.9952 B( 15-C , 17-H ) :   1.0026 B( 15-C , 18-H ) :   0.9996
B( 19-C , 20-O ) :   1.8328 B( 19-C , 21-H ) :   1.0604

E(0)                                       ...   -459.681107617
E(0)                                       ...   -459.681107617
E(CORR)(strong-pairs)                      ...     -1.849326287
E(CORR)(weak-pairs)                        ...     -0.009655224
E(CORR)(corrected)                         ...     -1.858981511
E(TOT)                                     ...   -461.540089128
E(CCSD(T))                                 ...   -461.625199232
FINAL SINGLE POINT ENERGY      -461.625199231771

DIPOLE MOMENT
-------------
                                X             Y             Z
Electronic contribution:     -2.19619       1.98592       0.66142
Nuclear contribution   :      3.70339      -1.85109      -1.32464
                        -----------------------------------------
Total Dipole Moment    :      1.50720       0.13483      -0.66322
                        -----------------------------------------
Magnitude (a.u.)       :      1.65218
Magnitude (Debye)      :      4.19951

Rotational constants in cm-1:     0.083347     0.026638     0.023251
Rotational constants in MHz :  2498.667243   798.583990   697.050702

                             ****ORCA TERMINATED NORMALLY****
TOTAL RUN TIME: 0 days 0 hours 5 minutes 42 seconds 822 msec
