                         Program Version 5.0.3 -  RELEASE  -
|  1> # DATS_13_endo_iv_DLPNO
|  2> %maxcore 4000
|  3> %pal nprocs 16 end
|  4> ! pal16 DLPNO-CCSD(T) def2-tzvpp def2-tzvpp/C
|  5>
|  6> * xyz 0 1
|  7>  C  -2.22625800   0.39822700  -0.36984800
|  8>  C  -1.84272200  -1.64301600   0.05910600
|  9>  C   0.28291700  -0.22570000   1.27329300
| 10>  C  -1.29320100   1.19746900   0.27889500
| 11>  H  -2.14503400   0.27953300  -1.44638000
| 12>  H  -3.23757200   0.34065300   0.02009000
| 13>  H  -1.51365400   1.65706800   1.23813000
| 14>  C  -0.53627300  -1.81946700  -0.35299700
| 15>  C   0.52065600  -1.08694400   0.22349900
| 16>  H  -2.63461600  -2.15735200  -0.47795600
| 17>  H   1.03465800   0.46000900   1.64473900
| 18>  H  -2.07064400  -1.44195000   1.10051300
| 19>  H  -0.53073000  -0.44244600   1.95090500
| 20>  C  -0.17656800   1.77650500  -0.47937000
| 21>  O   0.52455200   2.69753600  -0.11548800
| 22>  H   0.00336500   1.27629300  -1.45899200
| 23>  O   1.67507700  -1.10827500  -0.50052400
| 24>  H  -0.32590200  -2.30179800  -1.30385400
| 25>  C   2.73320900  -0.28676600  -0.04938100
| 26>  H   2.46430600   0.77534900  -0.10280200
| 27>  H   3.01564200  -0.53784500   0.98057300
| 28>  H   3.57259600  -0.48344100  -0.71605600
| 29> **                         ****END OF INPUT****

CARTESIAN COORDINATES (ANGSTROEM)
---------------------------------
  C     -2.226258    0.398227   -0.369848
  C     -1.842722   -1.643016    0.059106
  C      0.282917   -0.225700    1.273293
  C     -1.293201    1.197469    0.278895
  H     -2.145034    0.279533   -1.446380
  H     -3.237572    0.340653    0.020090
  H     -1.513654    1.657068    1.238130
  C     -0.536273   -1.819467   -0.352997
  C      0.520656   -1.086944    0.223499
  H     -2.634616   -2.157352   -0.477956
  H      1.034658    0.460009    1.644739
  H     -2.070644   -1.441950    1.100513
  H     -0.530730   -0.442446    1.950905
  C     -0.176568    1.776505   -0.479370
  O      0.524552    2.697536   -0.115488
  H      0.003365    1.276293   -1.458992
  O      1.675077   -1.108275   -0.500524
  H     -0.325902   -2.301798   -1.303854
  C      2.733209   -0.286766   -0.049381
  H      2.464306    0.775349   -0.102802
  H      3.015642   -0.537845    0.980573
  H      3.572596   -0.483441   -0.716056

 Total Charge           Charge          ....    0
 Multiplicity           Mult            ....    1
 Number of Electrons    NEL             ....   76
 Basis Dimension        Dim             ....  478

ORBITAL ENERGIES
----------------

  NO   OCC          E(Eh)            E(eV)
   0   2.0000     -20.583386      -560.1024
   1   2.0000     -20.530877      -558.6736
   2   2.0000     -11.320607      -308.0494
   3   2.0000     -11.299929      -307.4867
   4   2.0000     -11.277860      -306.8862
   5   2.0000     -11.259538      -306.3876
   6   2.0000     -11.252766      -306.2033
   7   2.0000     -11.245869      -306.0156
   8   2.0000     -11.244822      -305.9872
   9   2.0000     -11.238802      -305.8234
  10   2.0000      -1.412441       -38.4345
  11   2.0000      -1.371636       -37.3241
  12   2.0000      -1.115620       -30.3576
  13   2.0000      -1.057525       -28.7767
  14   2.0000      -0.999947       -27.2100
  15   2.0000      -0.958053       -26.0700
  16   2.0000      -0.878479       -23.9046
  17   2.0000      -0.846679       -23.0393
  18   2.0000      -0.776727       -21.1358
  19   2.0000      -0.738307       -20.0904
  20   2.0000      -0.706103       -19.2140
  21   2.0000      -0.674571       -18.3560
  22   2.0000      -0.658830       -17.9277
  23   2.0000      -0.648504       -17.6467
  24   2.0000      -0.643378       -17.5072
  25   2.0000      -0.611590       -16.6422
  26   2.0000      -0.585169       -15.9233
  27   2.0000      -0.573433       -15.6039
  28   2.0000      -0.567328       -15.4378
  29   2.0000      -0.545124       -14.8336
  30   2.0000      -0.535799       -14.5798
  31   2.0000      -0.525752       -14.3064
  32   2.0000      -0.515422       -14.0253
  33   2.0000      -0.500603       -13.6221
  34   2.0000      -0.453425       -12.3383
  35   2.0000      -0.413272       -11.2457
  36   2.0000      -0.323025        -8.7900
  37   2.0000      -0.311776        -8.4839
  38   0.0000       0.066597         1.8122
  39   0.0000       0.126599         3.4449
  40   0.0000       0.137003         3.7280
  41   0.0000       0.152089         4.1385
  42   0.0000       0.161673         4.3993

MULLIKEN ATOMIC CHARGES
-----------------------
   0 C :   -0.235066
   1 C :   -0.100809
   2 C :   -0.214235
   3 C :   -0.029506
   4 H :    0.104186
   5 H :    0.118859
   6 H :    0.114501
   7 C :   -0.182293
   8 C :    0.236338
   9 H :    0.104924
  10 H :    0.124399
  11 H :    0.094660
  12 H :    0.089506
  13 C :    0.258635
  14 O :   -0.471959
  15 H :    0.051456
  16 O :   -0.386793
  17 H :    0.094827
  18 C :   -0.000144
  19 H :    0.076883
  20 H :    0.064166
  21 H :    0.087468
Sum of atomic charges:   -0.0000000

LOEWDIN ATOMIC CHARGES
----------------------
   0 C :    0.039601
   1 C :    0.059595
   2 C :    0.067262
   3 C :   -0.046692
   4 H :    0.005995
   5 H :    0.007294
   6 H :    0.013522
   7 C :   -0.031235
   8 C :   -0.232392
   9 H :    0.007112
  10 H :    0.007395
  11 H :    0.008665
  12 H :    0.003850
  13 C :   -0.178449
  14 O :    0.033370
  15 H :    0.011802
  16 O :    0.223019
  17 H :    0.020926
  18 C :   -0.033483
  19 H :    0.006203
  20 H :    0.000594
  21 H :    0.006045

  Mayer bond orders larger than 0.100000
B(  0-C ,  1-C ) :   0.3326 B(  0-C ,  3-C ) :   1.4624 B(  0-C ,  4-H ) :   1.0196
B(  0-C ,  5-H ) :   1.0013 B(  1-C ,  7-C ) :   1.5168 B(  1-C ,  9-H ) :   1.0024
B(  1-C , 11-H ) :   1.0109 B(  2-C ,  3-C ) :   0.2415 B(  2-C ,  8-C ) :   1.5215
B(  2-C , 10-H ) :   0.9967 B(  2-C , 12-H ) :   1.0152 B(  3-C ,  6-H ) :   0.9829
B(  3-C , 13-C ) :   0.9508 B(  3-C , 15-H ) :  -0.1109 B(  7-C ,  8-C ) :   1.2978
B(  7-C , 17-H ) :   1.0080 B(  8-C , 16-O ) :   1.0282 B( 13-C , 14-O ) :   1.9449
B( 13-C , 15-H ) :   1.0682 B( 16-O , 18-C ) :   0.8880 B( 18-C , 19-H ) :   0.9907
B( 18-C , 20-H ) :   1.0009 B( 18-C , 21-H ) :   1.0031

E(0)                                       ...   -459.673876199
E(0)                                       ...   -459.673876199
E(CORR)(strong-pairs)                      ...     -1.853803299
E(CORR)(weak-pairs)                        ...     -0.010384668
E(CORR)(corrected)                         ...     -1.864187968
E(TOT)                                     ...   -461.538064167
E(CCSD(T))                                 ...   -461.623304804
FINAL SINGLE POINT ENERGY      -461.623304804124

DIPOLE MOMENT
-------------
                                X             Y             Z
Electronic contribution:      1.59240       1.57043      -1.26748
Nuclear contribution   :     -2.37537      -2.59731       1.44503
                        -----------------------------------------
Total Dipole Moment    :     -0.78297      -1.02687       0.17755
                        -----------------------------------------
Magnitude (a.u.)       :      1.30347
Magnitude (Debye)      :      3.31316

Rotational constants in cm-1:     0.048612     0.044976     0.026963
Rotational constants in MHz :  1457.350290  1348.332224   808.326077

                             ****ORCA TERMINATED NORMALLY****
TOTAL RUN TIME: 0 days 0 hours 6 minutes 3 seconds 877 msec
