                         Program Version 5.0.3 -  RELEASE  -
|  1> # DATS_14_endo_iv_DLPNO
|  2> %maxcore 4000
|  3> %pal nprocs 16 end
|  4> ! pal16 DLPNO-CCSD(T) def2-tzvpp def2-tzvpp/C
|  5>
|  6> * xyz 0 1
|  7>  C  -0.52106500  -1.63127800   0.16666200
|  8>  C   1.13770300  -0.71196300   1.04961300
|  9>  C  -0.88543200   1.28381100   1.07744900
| 10>  C  -1.67850200  -0.87574800   0.31711500
| 11>  H  -0.08862100  -1.71037900  -0.82858000
| 12>  H  -0.38303400  -2.51206600   0.78628100
| 13>  H  -2.32951900  -1.02096500   1.17504000
| 14>  C   1.26455100   0.45884300   0.31311300
| 15>  C   0.24219300   1.43428500   0.32076400
| 16>  H   1.90555000  -1.47612600   1.00244800
| 17>  H  -1.73073100   1.95134800   0.94447100
| 18>  H   0.28218500   2.18282200  -0.46559500
| 19>  H   0.63276900  -0.65017000   2.00492300
| 20>  H  -0.88951100   0.70183700   1.99071300
| 21>  O   2.18711200   0.63766900  -0.66769100
| 22>  C   3.23277900  -0.30425300  -0.76853100
| 23>  H   2.85624500  -1.29022200  -1.06663800
| 24>  H   3.90489100   0.07081800  -1.53988900
| 25>  H   3.77502600  -0.39758500   0.17993700
| 26>  C  -2.25623900  -0.16525500  -0.82365400
| 27>  O  -3.38689500   0.27129600  -0.88443000
| 28>  H  -1.55290800  -0.05167900  -1.68132200
| 29> **                         ****END OF INPUT****

CARTESIAN COORDINATES (ANGSTROEM)
---------------------------------
  C     -0.521065   -1.631278    0.166662
  C      1.137703   -0.711963    1.049613
  C     -0.885432    1.283811    1.077449
  C     -1.678502   -0.875748    0.317115
  H     -0.088621   -1.710379   -0.828580
  H     -0.383034   -2.512066    0.786281
  H     -2.329519   -1.020965    1.175040
  C      1.264551    0.458843    0.313113
  C      0.242193    1.434285    0.320764
  H      1.905550   -1.476126    1.002448
  H     -1.730731    1.951348    0.944471
  H      0.282185    2.182822   -0.465595
  H      0.632769   -0.650170    2.004923
  H     -0.889511    0.701837    1.990713
  O      2.187112    0.637669   -0.667691
  C      3.232779   -0.304253   -0.768531
  H      2.856245   -1.290222   -1.066638
  H      3.904891    0.070818   -1.539889
  H      3.775026   -0.397585    0.179937
  C     -2.256239   -0.165255   -0.823654
  O     -3.386895    0.271296   -0.884430
  H     -1.552908   -0.051679   -1.681322

 Total Charge           Charge          ....    0
 Multiplicity           Mult            ....    1
 Number of Electrons    NEL             ....   76
 Basis Dimension        Dim             ....  478

ORBITAL ENERGIES
----------------

  NO   OCC          E(Eh)            E(eV)
   0   2.0000     -20.600294      -560.5625
   1   2.0000     -20.514688      -558.2330
   2   2.0000     -11.317453      -307.9635
   3   2.0000     -11.307777      -307.7003
   4   2.0000     -11.296222      -307.3858
   5   2.0000     -11.264324      -306.5178
   6   2.0000     -11.264093      -306.5116
   7   2.0000     -11.246783      -306.0405
   8   2.0000     -11.234869      -305.7163
   9   2.0000     -11.224492      -305.4339
  10   2.0000      -1.429603       -38.9015
  11   2.0000      -1.356455       -36.9110
  12   2.0000      -1.118431       -30.4340
  13   2.0000      -1.054802       -28.7026
  14   2.0000      -1.005259       -27.3545
  15   2.0000      -0.973429       -26.4884
  16   2.0000      -0.868646       -23.6371
  17   2.0000      -0.856298       -23.3010
  18   2.0000      -0.767127       -20.8746
  19   2.0000      -0.749517       -20.3954
  20   2.0000      -0.710195       -19.3254
  21   2.0000      -0.684212       -18.6184
  22   2.0000      -0.670880       -18.2556
  23   2.0000      -0.640414       -17.4265
  24   2.0000      -0.638098       -17.3635
  25   2.0000      -0.617718       -16.8090
  26   2.0000      -0.584603       -15.9079
  27   2.0000      -0.576224       -15.6799
  28   2.0000      -0.570091       -15.5130
  29   2.0000      -0.545945       -14.8559
  30   2.0000      -0.538690       -14.6585
  31   2.0000      -0.529520       -14.4090
  32   2.0000      -0.517581       -14.0841
  33   2.0000      -0.505606       -13.7582
  34   2.0000      -0.453704       -12.3459
  35   2.0000      -0.399009       -10.8576
  36   2.0000      -0.351752        -9.5717
  37   2.0000      -0.291704        -7.9377
  38   0.0000       0.078021         2.1231
  39   0.0000       0.117328         3.1926
  40   0.0000       0.125437         3.4133
  41   0.0000       0.148223         4.0333
  42   0.0000       0.163962         4.4616

MULLIKEN ATOMIC CHARGES
-----------------------
   0 C :   -0.141452
   1 C :   -0.218803
   2 C :   -0.077584
   3 C :   -0.137641
   4 H :    0.097543
   5 H :    0.120001
   6 H :    0.105922
   7 C :    0.275443
   8 C :   -0.215253
   9 H :    0.097942
  10 H :    0.132488
  11 H :    0.105257
  12 H :    0.100370
  13 H :    0.089307
  14 O :   -0.368580
  15 C :   -0.005142
  16 H :    0.062118
  17 H :    0.095630
  18 H :    0.071279
  19 C :    0.265867
  20 O :   -0.481051
  21 H :    0.026338
Sum of atomic charges:   -0.0000000

LOEWDIN ATOMIC CHARGES
----------------------
   0 C :    0.057193
   1 C :    0.023008
   2 C :    0.118441
   3 C :   -0.078520
   4 H :    0.010047
   5 H :    0.012381
   6 H :    0.005731
   7 C :   -0.196059
   8 C :   -0.052261
   9 H :   -0.001400
  10 H :    0.017911
  11 H :    0.022900
  12 H :    0.009405
  13 H :    0.005976
  14 O :    0.236767
  15 C :   -0.033489
  16 H :   -0.000394
  17 H :    0.008869
  18 H :    0.002706
  19 C :   -0.195601
  20 O :    0.021756
  21 H :    0.004633

  Mayer bond orders larger than 0.100000
B(  0-C ,  1-C ) :   0.3594 B(  0-C ,  3-C ) :   1.4367 B(  0-C ,  4-H ) :   1.0127
B(  0-C ,  5-H ) :   0.9962 B(  1-C ,  7-C ) :   1.4394 B(  1-C ,  9-H ) :   1.0071
B(  1-C , 12-H ) :   1.0073 B(  2-C ,  3-C ) :   0.2151 B(  2-C ,  8-C ) :   1.5985
B(  2-C , 10-H ) :   0.9915 B(  2-C , 13-H ) :   1.0177 B(  3-C ,  6-H ) :   0.9898
B(  3-C , 19-C ) :   1.0140 B(  3-C , 21-H ) :  -0.1144 B(  7-C ,  8-C ) :   1.2678
B(  7-C , 14-O ) :   1.0578 B(  8-C , 11-H ) :   1.0071 B( 14-O , 15-C ) :   0.8951
B( 15-C , 16-H ) :   0.9960 B( 15-C , 17-H ) :   1.0027 B( 15-C , 18-H ) :   0.9993
B( 19-C , 20-O ) :   1.9435 B( 19-C , 21-H ) :   1.0677

E(0)                                       ...   -459.678153929
E(0)                                       ...   -459.678153929
E(CORR)(strong-pairs)                      ...     -1.850341466
E(CORR)(weak-pairs)                        ...     -0.009731366
E(CORR)(corrected)                         ...     -1.860072832
E(TOT)                                     ...   -461.538226761
E(CCSD(T))                                 ...   -461.623114862
FINAL SINGLE POINT ENERGY      -461.623114862234

DIPOLE MOMENT
-------------
                                X             Y             Z
Electronic contribution:     -4.34029       3.43304      -1.84964
Nuclear contribution   :      6.47925      -4.26427       2.52241
                        -----------------------------------------
Total Dipole Moment    :      2.13896      -0.83123       0.67277
                        -----------------------------------------
Magnitude (a.u.)       :      2.39138
Magnitude (Debye)      :      6.07841

Rotational constants in cm-1:     0.079428     0.025244     0.023749
Rotational constants in MHz :  2381.194384   756.791242   711.970058

                             ****ORCA TERMINATED NORMALLY****
TOTAL RUN TIME: 0 days 0 hours 5 minutes 54 seconds 299 msec
