                         Program Version 5.0.3 -  RELEASE  -
|  1> # DATS_13_exo_ii_DLPNO
|  2> %maxcore 4000
|  3> %pal nprocs 16 end
|  4> ! pal16 DLPNO-CCSD(T) def2-tzvpp def2-tzvpp/C
|  5>
|  6> * xyz 0 1
|  7>  C  -1.55331800   0.90444400   1.04321200
|  8>  C  -0.63146900   1.81660000  -0.52434200
|  9>  C   0.48830500  -0.79032200  -0.70194200
| 10>  C  -1.30568100  -0.46320100   0.98910500
| 11>  H  -1.14328000   1.48338300   1.86347800
| 12>  H  -2.51672100   1.23801800   0.66657900
| 13>  H  -0.65644100  -0.95454500   1.70442800
| 14>  C   0.71824100   1.59206700  -0.31681300
| 15>  C   1.25891200   0.28954200  -0.34207500
| 16>  H  -0.99782800   2.83686900  -0.44932900
| 17>  H   0.85082300  -1.80870100  -0.62299800
| 18>  H  -1.20447600   1.18819800  -1.20294000
| 19>  H  -0.35022500  -0.63864600  -1.36666600
| 20>  C  -2.14275500  -1.28986300   0.12557100
| 21>  O  -2.86846100  -0.83453700  -0.74269200
| 22>  H  -2.06305100  -2.38696800   0.26920400
| 23>  O   2.51141100   0.19998900   0.19336500
| 24>  C   3.11994500  -1.07025700   0.19583700
| 25>  H   4.13642700  -0.92203200   0.56048300
| 26>  H   2.59529400  -1.76503100   0.86384400
| 27>  H   3.14882400  -1.49896700  -0.81364300
| 28>  H   1.34397000   2.37074500   0.11086000
| 29> **                         ****END OF INPUT****

CARTESIAN COORDINATES (ANGSTROEM)
---------------------------------
  C     -1.553318    0.904444    1.043212
  C     -0.631469    1.816600   -0.524342
  C      0.488305   -0.790322   -0.701942
  C     -1.305681   -0.463201    0.989105
  H     -1.143280    1.483383    1.863478
  H     -2.516721    1.238018    0.666579
  H     -0.656441   -0.954545    1.704428
  C      0.718241    1.592067   -0.316813
  C      1.258912    0.289542   -0.342075
  H     -0.997828    2.836869   -0.449329
  H      0.850823   -1.808701   -0.622998
  H     -1.204476    1.188198   -1.202940
  H     -0.350225   -0.638646   -1.366666
  C     -2.142755   -1.289863    0.125571
  O     -2.868461   -0.834537   -0.742692
  H     -2.063051   -2.386968    0.269204
  O      2.511411    0.199989    0.193365
  C      3.119945   -1.070257    0.195837
  H      4.136427   -0.922032    0.560483
  H      2.595294   -1.765031    0.863844
  H      3.148824   -1.498967   -0.813643
  H      1.343970    2.370745    0.110860

 Total Charge           Charge          ....    0
 Multiplicity           Mult            ....    1
 Number of Electrons    NEL             ....   76
 Basis Dimension        Dim             ....  478

ORBITAL ENERGIES
----------------

  NO   OCC          E(Eh)            E(eV)
   0   2.0000     -20.585371      -560.1564
   1   2.0000     -20.529264      -558.6297
   2   2.0000     -11.317432      -307.9630
   3   2.0000     -11.298284      -307.4419
   4   2.0000     -11.286270      -307.1150
   5   2.0000     -11.252487      -306.1957
   6   2.0000     -11.250255      -306.1350
   7   2.0000     -11.241674      -305.9015
   8   2.0000     -11.240253      -305.8628
   9   2.0000     -11.233409      -305.6766
  10   2.0000      -1.414670       -38.4951
  11   2.0000      -1.368633       -37.2424
  12   2.0000      -1.111666       -30.2500
  13   2.0000      -1.050188       -28.5771
  14   2.0000      -0.997050       -27.1311
  15   2.0000      -0.961194       -26.1554
  16   2.0000      -0.887647       -24.1541
  17   2.0000      -0.848002       -23.0753
  18   2.0000      -0.749361       -20.3912
  19   2.0000      -0.734178       -19.9780
  20   2.0000      -0.706692       -19.2301
  21   2.0000      -0.689024       -18.7493
  22   2.0000      -0.667740       -18.1701
  23   2.0000      -0.659787       -17.9537
  24   2.0000      -0.622998       -16.9526
  25   2.0000      -0.612563       -16.6687
  26   2.0000      -0.580893       -15.8069
  27   2.0000      -0.576967       -15.7001
  28   2.0000      -0.564200       -15.3527
  29   2.0000      -0.537915       -14.6374
  30   2.0000      -0.528276       -14.3751
  31   2.0000      -0.525836       -14.3087
  32   2.0000      -0.509467       -13.8633
  33   2.0000      -0.500401       -13.6166
  34   2.0000      -0.456242       -12.4150
  35   2.0000      -0.413637       -11.2556
  36   2.0000      -0.327176        -8.9029
  37   2.0000      -0.300413        -8.1747
  38   0.0000       0.056737         1.5439
  39   0.0000       0.125346         3.4108
  40   0.0000       0.130961         3.5636
  41   0.0000       0.153189         4.1685
  42   0.0000       0.171696         4.6721

MULLIKEN ATOMIC CHARGES
-----------------------
   0 C :   -0.150339
   1 C :   -0.090225
   2 C :   -0.270361
   3 C :   -0.131607
   4 H :    0.107280
   5 H :    0.143472
   6 H :    0.096299
   7 C :   -0.208318
   8 C :    0.308769
   9 H :    0.105069
  10 H :    0.089149
  11 H :    0.118777
  12 H :    0.111758
  13 C :    0.286470
  14 O :   -0.500344
  15 H :    0.053600
  16 O :   -0.382953
  17 C :    0.000945
  18 H :    0.089032
  19 H :    0.059652
  20 H :    0.068386
  21 H :    0.095489
Sum of atomic charges:    0.0000000

LOEWDIN ATOMIC CHARGES
----------------------
   0 C :    0.064436
   1 C :    0.063543
   2 C :    0.058460
   3 C :   -0.066395
   4 H :    0.006987
   5 H :    0.023925
   6 H :    0.000178
   7 C :   -0.013844
   8 C :   -0.227289
   9 H :    0.009947
  10 H :   -0.004317
  11 H :    0.020184
  12 H :    0.007819
  13 C :   -0.180736
  14 O :    0.021242
  15 H :    0.005796
  16 O :    0.222574
  17 C :   -0.040805
  18 H :    0.006787
  19 H :   -0.001403
  20 H :    0.002090
  21 H :    0.020819

  Mayer bond orders larger than 0.100000
B(  0-C ,  1-C ) :   0.3391 B(  0-C ,  3-C ) :   1.4422 B(  0-C ,  4-H ) :   1.0124
B(  0-C ,  5-H ) :   0.9881 B(  1-C ,  7-C ) :   1.4834 B(  1-C ,  9-H ) :   1.0022
B(  1-C , 11-H ) :   1.0060 B(  2-C ,  3-C ) :   0.2461 B(  2-C ,  8-C ) :   1.5229
B(  2-C , 10-H ) :   1.0116 B(  2-C , 12-H ) :   0.9992 B(  3-C ,  6-H ) :   1.0070
B(  3-C , 13-C ) :   1.0376 B(  7-C ,  8-C ) :   1.2740 B(  7-C , 21-H ) :   1.0052
B(  8-C , 16-O ) :   1.0237 B( 13-C , 14-O ) :   1.8880 B( 13-C , 15-H ) :   1.0574
B( 16-O , 17-C ) :   0.9018 B( 17-C , 18-H ) :   1.0035 B( 17-C , 19-H ) :   0.9972
B( 17-C , 20-H ) :   0.9987

E(0)                                       ...   -459.674933232
E(0)                                       ...   -459.674933232
E(CORR)(strong-pairs)                      ...     -1.853659195
E(CORR)(weak-pairs)                        ...     -0.009008714
E(CORR)(corrected)                         ...     -1.862667909
E(TOT)                                     ...   -461.537601141
E(CCSD(T))                                 ...   -461.623036991
FINAL SINGLE POINT ENERGY      -461.623036990544

DIPOLE MOMENT
-------------
                                X             Y             Z
Electronic contribution:     -2.12271       0.71024      -0.88244
Nuclear contribution   :      3.19480      -0.88347       1.60330
                        -----------------------------------------
Total Dipole Moment    :      1.07209      -0.17323       0.72086
                        -----------------------------------------
Magnitude (a.u.)       :      1.30347
Magnitude (Debye)      :      3.31315

Rotational constants in cm-1:     0.073021     0.028171     0.023723
Rotational constants in MHz :  2189.105681   844.536471   711.207891

                             ****ORCA TERMINATED NORMALLY****
TOTAL RUN TIME: 0 days 0 hours 7 minutes 7 seconds 467 msec
