                         Program Version 5.0.3 -  RELEASE  -
|  1> # DATS_13_endo_ii_DLPNO
|  2> %maxcore 4000
|  3> %pal nprocs 16 end
|  4> ! pal16 DLPNO-CCSD(T) def2-tzvpp def2-tzvpp/C
|  5>
|  6> * xyz 0 1
|  7>  C   2.32405000  -0.19146600  -0.07761900
|  8>  C   1.53992700   1.68306600  -0.18386000
|  9>  C  -0.42835500   0.38007600   1.41239800
| 10>  C   1.49925000  -1.01476400   0.68083100
| 11>  H   2.30529300  -0.35220300  -1.15049500
| 12>  H   3.27676500   0.12354800   0.33855200
| 13>  H   1.70538700  -1.23731800   1.72277400
| 14>  C   0.23595600   1.51906800  -0.62121400
| 15>  C  -0.73973800   0.87438000   0.16766800
| 16>  H   2.24898400   2.16124900  -0.85363700
| 17>  H  -1.11899600  -0.23025600   1.98192300
| 18>  H   1.73575600   1.86767400   0.86786100
| 19>  H   0.38278200   0.82116100   1.97243900
| 20>  C   0.45805600  -1.77050400  -0.00527200
| 21>  O   0.16574300  -1.59953700  -1.17692200
| 22>  H  -0.09130900  -2.51213500   0.61216700
| 23>  O  -1.89312900   0.60768000  -0.49956200
| 24>  C  -2.80076000  -0.28315000   0.10360400
| 25>  H  -3.64273100  -0.36950900  -0.58275500
| 26>  H  -2.34498600  -1.27114200   0.24274900
| 27>  H  -3.15562900   0.09703600   1.07015300
| 28>  H  -0.01254900   1.65651100  -1.66907800
| 29> **                         ****END OF INPUT****

CARTESIAN COORDINATES (ANGSTROEM)
---------------------------------
  C      2.324050   -0.191466   -0.077619
  C      1.539927    1.683066   -0.183860
  C     -0.428355    0.380076    1.412398
  C      1.499250   -1.014764    0.680831
  H      2.305293   -0.352203   -1.150495
  H      3.276765    0.123548    0.338552
  H      1.705387   -1.237318    1.722774
  C      0.235956    1.519068   -0.621214
  C     -0.739738    0.874380    0.167668
  H      2.248984    2.161249   -0.853637
  H     -1.118996   -0.230256    1.981923
  H      1.735756    1.867674    0.867861
  H      0.382782    0.821161    1.972439
  C      0.458056   -1.770504   -0.005272
  O      0.165743   -1.599537   -1.176922
  H     -0.091309   -2.512135    0.612167
  O     -1.893129    0.607680   -0.499562
  C     -2.800760   -0.283150    0.103604
  H     -3.642731   -0.369509   -0.582755
  H     -2.344986   -1.271142    0.242749
  H     -3.155629    0.097036    1.070153
  H     -0.012549    1.656511   -1.669078

 Total Charge           Charge          ....    0
 Multiplicity           Mult            ....    1
 Number of Electrons    NEL             ....   76
 Basis Dimension        Dim             ....  478

ORBITAL ENERGIES
----------------

  NO   OCC          E(Eh)            E(eV)
   0   2.0000     -20.575168      -559.8788
   1   2.0000     -20.519723      -558.3700
   2   2.0000     -11.310592      -307.7769
   3   2.0000     -11.296141      -307.3836
   4   2.0000     -11.275789      -306.8298
   5   2.0000     -11.254158      -306.2412
   6   2.0000     -11.247703      -306.0656
   7   2.0000     -11.241120      -305.8864
   8   2.0000     -11.237717      -305.7938
   9   2.0000     -11.234428      -305.7043
  10   2.0000      -1.407522       -38.3006
  11   2.0000      -1.360120       -37.0107
  12   2.0000      -1.109099       -30.1801
  13   2.0000      -1.047876       -28.5142
  14   2.0000      -0.996728       -27.1224
  15   2.0000      -0.954505       -25.9734
  16   2.0000      -0.884968       -24.0812
  17   2.0000      -0.844426       -22.9780
  18   2.0000      -0.750716       -20.4280
  19   2.0000      -0.724850       -19.7242
  20   2.0000      -0.700795       -19.0696
  21   2.0000      -0.690455       -18.7882
  22   2.0000      -0.661551       -18.0017
  23   2.0000      -0.653205       -17.7746
  24   2.0000      -0.620430       -16.8828
  25   2.0000      -0.605429       -16.4746
  26   2.0000      -0.580666       -15.8007
  27   2.0000      -0.566677       -15.4201
  28   2.0000      -0.561025       -15.2663
  29   2.0000      -0.544000       -14.8030
  30   2.0000      -0.534043       -14.5320
  31   2.0000      -0.516854       -14.0643
  32   2.0000      -0.497773       -13.5451
  33   2.0000      -0.490917       -13.3585
  34   2.0000      -0.447694       -12.1824
  35   2.0000      -0.406858       -11.0712
  36   2.0000      -0.326816        -8.8931
  37   2.0000      -0.298686        -8.1277
  38   0.0000       0.061094         1.6624
  39   0.0000       0.131334         3.5738
  40   0.0000       0.139324         3.7912
  41   0.0000       0.149892         4.0788
  42   0.0000       0.161910         4.4058

MULLIKEN ATOMIC CHARGES
-----------------------
   0 C :   -0.162195
   1 C :   -0.130213
   2 C :   -0.273726
   3 C :   -0.104088
   4 H :    0.130931
   5 H :    0.115657
   6 H :    0.099832
   7 C :   -0.124122
   8 C :    0.306765
   9 H :    0.106671
  10 H :    0.098015
  11 H :    0.096584
  12 H :    0.082383
  13 C :    0.265391
  14 O :   -0.496200
  15 H :    0.049795
  16 O :   -0.374872
  17 C :    0.003498
  18 H :    0.089568
  19 H :    0.063408
  20 H :    0.060275
  21 H :    0.096644
Sum of atomic charges:   -0.0000000

LOEWDIN ATOMIC CHARGES
----------------------
   0 C :    0.057172
   1 C :    0.055137
   2 C :    0.053939
   3 C :   -0.060576
   4 H :    0.019319
   5 H :    0.008548
   6 H :    0.001725
   7 C :    0.001577
   8 C :   -0.227443
   9 H :    0.010544
  10 H :   -0.004217
  11 H :    0.010462
  12 H :   -0.001096
  13 C :   -0.196181
  14 O :    0.032529
  15 H :    0.002159
  16 O :    0.240018
  17 C :   -0.038481
  18 H :    0.008100
  19 H :    0.002681
  20 H :   -0.002424
  21 H :    0.026505

  Mayer bond orders larger than 0.100000
B(  0-C ,  1-C ) :   0.3826 B(  0-C ,  3-C ) :   1.4505 B(  0-C ,  4-H ) :   0.9950
B(  0-C ,  5-H ) :   1.0057 B(  1-C ,  7-C ) :   1.4768 B(  1-C ,  9-H ) :   1.0002
B(  1-C , 11-H ) :   1.0112 B(  2-C ,  3-C ) :   0.2181 B(  2-C ,  8-C ) :   1.5145
B(  2-C , 10-H ) :   1.0153 B(  2-C , 12-H ) :   1.0137 B(  3-C ,  6-H ) :   1.0037
B(  3-C , 13-C ) :   1.0319 B(  7-C ,  8-C ) :   1.2995 B(  7-C , 21-H ) :   0.9869
B(  8-C , 16-O ) :   1.0262 B( 13-C , 14-O ) :   1.8966 B( 13-C , 15-H ) :   1.0578
B( 16-O , 17-C ) :   0.9014 B( 17-C , 18-H ) :   1.0051 B( 17-C , 19-H ) :   0.9907
B( 17-C , 20-H ) :   1.0038

E(0)                                       ...   -459.672747256
E(0)                                       ...   -459.672747256
E(CORR)(strong-pairs)                      ...     -1.855774028
E(CORR)(weak-pairs)                        ...     -0.010606017
E(CORR)(corrected)                         ...     -1.866380045
E(TOT)                                     ...   -461.539127301
E(CCSD(T))                                 ...   -461.625060469
FINAL SINGLE POINT ENERGY      -461.625060468997

DIPOLE MOMENT
-------------
                                X             Y             Z
Electronic contribution:     -0.88205      -0.44956      -3.29364
Nuclear contribution   :      1.28450       0.75243       4.60861
                        -----------------------------------------
Total Dipole Moment    :      0.40245       0.30287       1.31497
                        -----------------------------------------
Magnitude (a.u.)       :      1.40813
Magnitude (Debye)      :      3.57919

Rotational constants in cm-1:     0.062110     0.039940     0.031531
Rotational constants in MHz :  1862.005667  1197.361305   945.280400

                             ****ORCA TERMINATED NORMALLY****
TOTAL RUN TIME: 0 days 0 hours 8 minutes 5 seconds 92 msec
