                         Program Version 5.0.3 -  RELEASE  -
|  1> # DATS_13_endo_i_DLPNO
|  2> %maxcore 4000
|  3> %pal nprocs 16 end
|  4> ! pal16 DLPNO-CCSD(T) def2-tzvpp def2-tzvpp/C
|  5>
|  6> * xyz 0 1
|  7>  C   2.26547700   0.13745600  -0.52410600
|  8>  C   0.98339600   1.81401400  -0.58096500
|  9>  C  -0.03126300   0.45573300   1.70677900
| 10>  C   1.83297400  -0.71774100   0.47284800
| 11>  H   2.00461800  -0.12762100  -1.54272300
| 12>  H   3.17978000   0.70760900  -0.38975700
| 13>  H   2.32410500  -0.79070800   1.43720000
| 14>  C  -0.29784600   1.29934500  -0.55516600
| 15>  C  -0.80620800   0.63722000   0.59059600
| 16>  H   1.33462900   2.28855500  -1.49231600
| 17>  H  -0.40465100  -0.17245900   2.50849400
| 18>  H   1.44020700   2.19215200   0.32690800
| 19>  H   0.79591200   1.11205900   1.93222300
| 20>  C   0.78653300  -1.67591000   0.13407200
| 21>  O   0.19951000  -1.65841500  -0.93715400
| 22>  H   0.51572600  -2.41517100   0.91253400
| 23>  O  -1.99138500  -0.03161400   0.58130800
| 24>  C  -2.65027100  -0.22289100  -0.65654900
| 25>  H  -3.52141300  -0.83912100  -0.43297700
| 26>  H  -2.99023700   0.73065200  -1.07918500
| 27>  H  -2.00253700  -0.74427300  -1.36736000
| 28>  H  -0.83789200   1.21520000  -1.49133800
| 29> **                         ****END OF INPUT****

CARTESIAN COORDINATES (ANGSTROEM)
---------------------------------
  C      2.265477    0.137456   -0.524106
  C      0.983396    1.814014   -0.580965
  C     -0.031263    0.455733    1.706779
  C      1.832974   -0.717741    0.472848
  H      2.004618   -0.127621   -1.542723
  H      3.179780    0.707609   -0.389757
  H      2.324105   -0.790708    1.437200
  C     -0.297846    1.299345   -0.555166
  C     -0.806208    0.637220    0.590596
  H      1.334629    2.288555   -1.492316
  H     -0.404651   -0.172459    2.508494
  H      1.440207    2.192152    0.326908
  H      0.795912    1.112059    1.932223
  C      0.786533   -1.675910    0.134072
  O      0.199510   -1.658415   -0.937154
  H      0.515726   -2.415171    0.912534
  O     -1.991385   -0.031614    0.581308
  C     -2.650271   -0.222891   -0.656549
  H     -3.521413   -0.839121   -0.432977
  H     -2.990237    0.730652   -1.079185
  H     -2.002537   -0.744273   -1.367360
  H     -0.837892    1.215200   -1.491338

 Total Charge           Charge          ....    0
 Multiplicity           Mult            ....    1
 Number of Electrons    NEL             ....   76
 Basis Dimension        Dim             ....  478

ORBITAL ENERGIES
----------------

  NO   OCC          E(Eh)            E(eV)
   0   2.0000     -20.570980      -559.7648
   1   2.0000     -20.524083      -558.4887
   2   2.0000     -11.312944      -307.8409
   3   2.0000     -11.294412      -307.3366
   4   2.0000     -11.266814      -306.5856
   5   2.0000     -11.254325      -306.2458
   6   2.0000     -11.247880      -306.0704
   7   2.0000     -11.240129      -305.8594
   8   2.0000     -11.234626      -305.7097
   9   2.0000     -11.232408      -305.6493
  10   2.0000      -1.400892       -38.1202
  11   2.0000      -1.363704       -37.1083
  12   2.0000      -1.105670       -30.0868
  13   2.0000      -1.048554       -28.5326
  14   2.0000      -1.006807       -27.3966
  15   2.0000      -0.920975       -25.0610
  16   2.0000      -0.885777       -24.1032
  17   2.0000      -0.861034       -23.4299
  18   2.0000      -0.745052       -20.2739
  19   2.0000      -0.722501       -19.6603
  20   2.0000      -0.701352       -19.0848
  21   2.0000      -0.690428       -18.7875
  22   2.0000      -0.660711       -17.9789
  23   2.0000      -0.647885       -17.6299
  24   2.0000      -0.619491       -16.8572
  25   2.0000      -0.597045       -16.2464
  26   2.0000      -0.578470       -15.7410
  27   2.0000      -0.566061       -15.4033
  28   2.0000      -0.562464       -15.3054
  29   2.0000      -0.549508       -14.9529
  30   2.0000      -0.539348       -14.6764
  31   2.0000      -0.521150       -14.1812
  32   2.0000      -0.494895       -13.4668
  33   2.0000      -0.478304       -13.0153
  34   2.0000      -0.442693       -12.0463
  35   2.0000      -0.411091       -11.1864
  36   2.0000      -0.319404        -8.6914
  37   2.0000      -0.305485        -8.3127
  38   0.0000       0.064548         1.7564
  39   0.0000       0.124588         3.3902
  40   0.0000       0.140986         3.8364
  41   0.0000       0.152672         4.1544
  42   0.0000       0.163745         4.4557

MULLIKEN ATOMIC CHARGES
-----------------------
   0 C :   -0.164397
   1 C :   -0.157308
   2 C :   -0.255848
   3 C :   -0.131981
   4 H :    0.130054
   5 H :    0.114557
   6 H :    0.102562
   7 C :   -0.123884
   8 C :    0.313159
   9 H :    0.108395
  10 H :    0.106645
  11 H :    0.098239
  12 H :    0.088629
  13 C :    0.325704
  14 O :   -0.521252
  15 H :    0.055114
  16 O :   -0.391798
  17 C :   -0.016169
  18 H :    0.082159
  19 H :    0.059435
  20 H :    0.097490
  21 H :    0.080497
Sum of atomic charges:   -0.0000000

LOEWDIN ATOMIC CHARGES
----------------------
   0 C :    0.061869
   1 C :    0.062678
   2 C :    0.063772
   3 C :   -0.060972
   4 H :    0.016712
   5 H :    0.006032
   6 H :    0.003587
   7 C :   -0.020201
   8 C :   -0.228425
   9 H :    0.008415
  10 H :    0.002203
  11 H :    0.009141
  12 H :   -0.004887
  13 C :   -0.170687
  14 O :    0.029394
  15 H :    0.007847
  16 O :    0.228158
  17 C :   -0.036910
  18 H :    0.005198
  19 H :   -0.004804
  20 H :    0.003851
  21 H :    0.018028

  Mayer bond orders larger than 0.100000
B(  0-C ,  1-C ) :   0.3323 B(  0-C ,  3-C ) :   1.5041 B(  0-C ,  4-H ) :   0.9937
B(  0-C ,  5-H ) :   1.0069 B(  1-C ,  7-C ) :   1.5247 B(  1-C ,  9-H ) :   1.0014
B(  1-C , 11-H ) :   1.0137 B(  2-C ,  3-C ) :   0.2121 B(  2-C ,  8-C ) :   1.5516
B(  2-C , 10-H ) :   1.0017 B(  2-C , 12-H ) :   1.0279 B(  3-C ,  6-H ) :   1.0010
B(  3-C , 13-C ) :   1.0455 B(  7-C ,  8-C ) :   1.2451 B(  7-C , 21-H ) :   0.9977
B(  8-C , 16-O ) :   1.0369 B( 13-C , 14-O ) :   1.8545 B( 13-C , 15-H ) :   1.0488
B( 16-O , 17-C ) :   0.8834 B( 17-C , 18-H ) :   1.0055 B( 17-C , 19-H ) :   1.0028
B( 17-C , 20-H ) :   0.9902

E(0)                                       ...   -459.674821114
E(0)                                       ...   -459.674821114
E(CORR)(strong-pairs)                      ...     -1.854330417
E(CORR)(weak-pairs)                        ...     -0.010393007
E(CORR)(corrected)                         ...     -1.864723424
E(TOT)                                     ...   -461.539544538
E(CCSD(T))                                 ...   -461.625079002
FINAL SINGLE POINT ENERGY      -461.625079001611

DIPOLE MOMENT
-------------
                                X             Y             Z
Electronic contribution:     -1.20267      -2.49090       0.93975
Nuclear contribution   :      1.84295       3.18721      -0.69635
                        -----------------------------------------
Total Dipole Moment    :      0.64027       0.69631       0.24340
                        -----------------------------------------
Magnitude (a.u.)       :      0.97675
Magnitude (Debye)      :      2.48270

Rotational constants in cm-1:     0.061479     0.039166     0.033483
Rotational constants in MHz :  1843.092884  1174.165816  1003.786607

                             ****ORCA TERMINATED NORMALLY****
TOTAL RUN TIME: 0 days 0 hours 7 minutes 45 seconds 368 msec
