                         Program Version 5.0.3 -  RELEASE  -
|  1> # DATS_14_exo_i_DLPNO
|  2> %maxcore 4000
|  3> %pal nprocs 16 end
|  4> ! pal16 DLPNO-CCSD(T) def2-tzvpp def2-tzvpp/C
|  5>
|  6> * xyz 0 1
|  7>  C   0.95383900  -1.27006900   0.75812400
|  8>  C  -0.24861000  -1.00294400  -0.91320600
|  9>  C   0.32640100   1.74852900  -0.33781700
| 10>  C   1.61450900  -0.09990800   1.09669400
| 11>  H   0.20459900  -1.68133900   1.42737600
| 12>  H   1.51389600  -1.99653800   0.17527800
| 13>  H   1.33459700   0.48875500   1.96268300
| 14>  C  -1.22091800  -0.12616600  -0.47317900
| 15>  C  -0.91112800   1.22648100  -0.13850400
| 16>  H  -0.56370800  -2.01760300  -1.13605100
| 17>  H   0.56314400   2.74345200   0.02639400
| 18>  H  -1.63604100   1.80783400   0.42177000
| 19>  H   0.61168800  -0.63662000  -1.46235600
| 20>  H   1.04715500   1.30125400  -1.01069600
| 21>  O  -2.42500200  -0.68409100  -0.18206800
| 22>  C  -3.42274400   0.11378500   0.41944300
| 23>  H  -3.66624200   0.98506400  -0.19923900
| 24>  H  -4.30219100  -0.52408400   0.50458800
| 25>  H  -3.12293100   0.45018300   1.41897100
| 26>  C   2.78505600   0.28439800   0.33285900
| 27>  O   3.09555600  -0.22587800  -0.73581700
| 28>  H   3.39316800   1.11476400   0.74787800
| 29> **                         ****END OF INPUT****

CARTESIAN COORDINATES (ANGSTROEM)
---------------------------------
  C      0.953839   -1.270069    0.758124
  C     -0.248610   -1.002944   -0.913206
  C      0.326401    1.748529   -0.337817
  C      1.614509   -0.099908    1.096694
  H      0.204599   -1.681339    1.427376
  H      1.513896   -1.996538    0.175278
  H      1.334597    0.488755    1.962683
  C     -1.220918   -0.126166   -0.473179
  C     -0.911128    1.226481   -0.138504
  H     -0.563708   -2.017603   -1.136051
  H      0.563144    2.743452    0.026394
  H     -1.636041    1.807834    0.421770
  H      0.611688   -0.636620   -1.462356
  H      1.047155    1.301254   -1.010696
  O     -2.425002   -0.684091   -0.182068
  C     -3.422744    0.113785    0.419443
  H     -3.666242    0.985064   -0.199239
  H     -4.302191   -0.524084    0.504588
  H     -3.122931    0.450183    1.418971
  C      2.785056    0.284398    0.332859
  O      3.095556   -0.225878   -0.735817
  H      3.393168    1.114764    0.747878

 Total Charge           Charge          ....    0
 Multiplicity           Mult            ....    1
 Number of Electrons    NEL             ....   76
 Basis Dimension        Dim             ....  478

ORBITAL ENERGIES
----------------

  NO   OCC          E(Eh)            E(eV)
   0   2.0000     -20.598617      -560.5169
   1   2.0000     -20.513933      -558.2125
   2   2.0000     -11.318589      -307.9945
   3   2.0000     -11.304118      -307.6007
   4   2.0000     -11.296012      -307.3801
   5   2.0000     -11.261880      -306.4513
   6   2.0000     -11.257357      -306.3283
   7   2.0000     -11.244531      -305.9792
   8   2.0000     -11.231132      -305.6146
   9   2.0000     -11.208773      -305.0062
  10   2.0000      -1.427624       -38.8476
  11   2.0000      -1.352785       -36.8112
  12   2.0000      -1.112984       -30.2858
  13   2.0000      -1.045892       -28.4602
  14   2.0000      -1.019590       -27.7444
  15   2.0000      -0.942080       -25.6353
  16   2.0000      -0.878488       -23.9049
  17   2.0000      -0.870033       -23.6748
  18   2.0000      -0.747699       -20.3459
  19   2.0000      -0.733071       -19.9479
  20   2.0000      -0.710200       -19.3255
  21   2.0000      -0.688824       -18.7438
  22   2.0000      -0.669065       -18.2062
  23   2.0000      -0.667404       -18.1610
  24   2.0000      -0.612262       -16.6605
  25   2.0000      -0.605212       -16.4687
  26   2.0000      -0.588642       -16.0178
  27   2.0000      -0.580511       -15.7965
  28   2.0000      -0.560723       -15.2581
  29   2.0000      -0.549493       -14.9525
  30   2.0000      -0.535407       -14.5692
  31   2.0000      -0.524405       -14.2698
  32   2.0000      -0.508210       -13.8291
  33   2.0000      -0.497626       -13.5411
  34   2.0000      -0.447455       -12.1759
  35   2.0000      -0.400935       -10.9100
  36   2.0000      -0.359209        -9.7746
  37   2.0000      -0.279473        -7.6048
  38   0.0000       0.065777         1.7899
  39   0.0000       0.112591         3.0637
  40   0.0000       0.129808         3.5323
  41   0.0000       0.158077         4.3015
  42   0.0000       0.162555         4.4233

MULLIKEN ATOMIC CHARGES
-----------------------
   0 C :   -0.087508
   1 C :   -0.188117
   2 C :   -0.146032
   3 C :   -0.212023
   4 H :    0.111848
   5 H :    0.139965
   6 H :    0.084957
   7 C :    0.274247
   8 C :   -0.153674
   9 H :    0.110164
  10 H :    0.096084
  11 H :    0.082873
  12 H :    0.131557
  13 H :    0.107786
  14 O :   -0.368206
  15 C :   -0.018321
  16 H :    0.073913
  17 H :    0.094322
  18 H :    0.068754
  19 C :    0.274346
  20 O :   -0.525179
  21 H :    0.048244
Sum of atomic charges:    0.0000000

LOEWDIN ATOMIC CHARGES
----------------------
   0 C :    0.088649
   1 C :    0.047610
   2 C :    0.113991
   3 C :   -0.111749
   4 H :    0.011065
   5 H :    0.026864
   6 H :   -0.007334
   7 C :   -0.180975
   8 C :   -0.062895
   9 H :    0.009332
  10 H :    0.006837
  11 H :    0.013465
  12 H :    0.016133
  13 H :    0.011851
  14 O :    0.236657
  15 C :   -0.035199
  16 H :    0.002917
  17 H :    0.009335
  18 H :    0.000212
  19 C :   -0.196601
  20 O :   -0.003077
  21 H :    0.002912

  Mayer bond orders larger than 0.100000
B(  0-C ,  1-C ) :   0.3257 B(  0-C ,  3-C ) :   1.4497 B(  0-C ,  4-H ) :   1.0082
B(  0-C ,  5-H ) :   0.9853 B(  1-C ,  7-C ) :   1.4640 B(  1-C ,  9-H ) :   0.9973
B(  1-C , 12-H ) :   1.0140 B(  2-C ,  3-C ) :   0.1635 B(  2-C ,  8-C ) :   1.6753
B(  2-C , 10-H ) :   1.0044 B(  2-C , 13-H ) :   1.0097 B(  3-C ,  6-H ) :   1.0135
B(  3-C , 19-C ) :   1.1003 B(  7-C ,  8-C ) :   1.1723 B(  7-C , 14-O ) :   1.0667
B(  8-C , 11-H ) :   1.0074 B( 14-O , 15-C ) :   0.8926 B( 15-C , 16-H ) :   0.9997
B( 15-C , 17-H ) :   1.0032 B( 15-C , 18-H ) :   0.9974 B( 19-C , 20-O ) :   1.8495
B( 19-C , 21-H ) :   1.0588

E(0)                                       ...   -459.681119898
E(0)                                       ...   -459.681119898
E(CORR)(strong-pairs)                      ...     -1.848216078
E(CORR)(weak-pairs)                        ...     -0.008952125
E(CORR)(corrected)                         ...     -1.857168203
E(TOT)                                     ...   -461.538288101
E(CCSD(T))                                 ...   -461.622904601
FINAL SINGLE POINT ENERGY      -461.622904600799

DIPOLE MOMENT
-------------
                                X             Y             Z
Electronic contribution:      3.01720      -1.33669      -1.95409
Nuclear contribution   :     -4.69625       2.05756       2.91422
                        -----------------------------------------
Total Dipole Moment    :     -1.67904       0.72086       0.96013
                        -----------------------------------------
Magnitude (a.u.)       :      2.06414
Magnitude (Debye)      :      5.24663

Rotational constants in cm-1:     0.091307     0.024880     0.022817
Rotational constants in MHz :  2737.308303   745.883382   684.039667

                             ****ORCA TERMINATED NORMALLY****
TOTAL RUN TIME: 0 days 0 hours 7 minutes 26 seconds 230 msec
