 Q-Chem 5.4, Q-Chem, Inc., Pleasanton, CA (2021)
 Q-Chem 5.4.1 for Intel X86 EM64T Linux

User input:
--------------------------------------------------------------
$molecule
0 1
C  -1.213433  1.454079  0.860923
C  0.337991  2.025288  -0.610598
C  -0.061607  -0.762828  -0.978283
C  -1.45372  0.09898  0.743487
H  -0.634345  1.837234  1.692012
H  -1.923199  2.153874  0.424333
H  -1.008344  -0.619358  1.423404
C  1.342336  1.119667  -0.35842
C  1.137403  -0.272715  -0.522677
H  0.504496  3.076204  -0.393556
H  -0.250394  -1.830513  -0.950747
H  -0.415347  1.831278  -1.364967
H  -0.66805  -0.176684  -1.654842
C  -2.635173  -0.359062  -0.003857
O  -3.100541  -1.475241  0.034356
H  -3.097639  0.429175  -0.643866
O  2.01392  -1.204192  -0.041983
C  3.14847  -0.759462  0.665421
H  3.694821  -1.658593  0.950473
H  3.794361  -0.1308  0.040328
H  2.871457  -0.203689  1.570114
H  2.211549  1.463651  0.192362
$end

$rem
METHOD wB97X-V
BASIS def2-TZVP
XC_GRID 000099000590
MEM_TOTAL          8000
MEM_STATIC         4000
$end

--------------------------------------------------------------

             Standard Nuclear Orientation (Angstroms)
    I     Atom           X                Y                Z
 ----------------------------------------------------------------
    1      C       1.2134331196     1.4540790344    -0.8609227347
    2      C      -0.3379909274     2.0252880161     0.6105982228
    3      C       0.0616069099    -0.7628280290     0.9782830576
    4      C       1.4537200437     0.0989800142    -0.7434868126
    5      H       0.6343451825     1.8372341197    -1.6920117392
    6      H       1.9231991330     2.1538739687    -0.4243326511
    7      H       1.0083440420    -0.6193579175    -1.4234038837
    8      C      -1.3423359609     1.1196670847     0.3584201102
    9      C      -1.1374030412    -0.2727149368     0.5226770280
   10      H      -0.5044958619     3.0762040392     0.3935562843
   11      H       0.2503938563    -1.8305130369     0.9507469961
   12      H       0.4153470235     1.8312779270     1.3649672490
   13      H       0.6680499049    -0.1766841054     1.6548421282
   14      C       2.6351729813    -0.3590620966     0.0038572182
   15      O       3.1005409258    -1.4752411180    -0.0343558321
   16      H       3.0976389887     0.4291748369     0.6438662948
   17      O      -2.0139200642    -1.2041918596     0.0419829203
   18      C      -3.1484700046    -0.7594617539    -0.6654211089
   19      H      -3.6948210361    -1.6585927067    -0.9504731973
   20      H      -3.7943610046    -0.1307997623    -0.0403281005
   21      H      -2.8714569289    -0.2036887078    -1.5701140575
   22      H      -2.2115489146     1.4636511663    -0.1923619119
 ----------------------------------------------------------------

    8    -462.4207321304      7.62e-06  Convergence criterion met
 Total energy in the final basis set =     -462.4207321304

                    Orbital Energies (a.u.)
 --------------------------------------------------------------

 Alpha MOs
 -- Occupied --
-19.2466 -19.1939 -10.3497 -10.3376 -10.3273 -10.2970 -10.2891 -10.2853
-10.2826 -10.2778  -1.2044  -1.1641  -0.9649  -0.9172  -0.8866  -0.8202
 -0.7734  -0.7588  -0.6871  -0.6635  -0.6440  -0.6085  -0.5928  -0.5771
 -0.5759  -0.5459  -0.5292  -0.5190  -0.5171  -0.5101  -0.4976  -0.4812
 -0.4751  -0.4422  -0.4263  -0.3550  -0.3307  -0.3153

          Ground-State Mulliken Net Atomic Charges

     Atom                 Charge (a.u.)
  ----------------------------------------
      1 C                    -0.302354
      2 C                    -0.273688
      3 C                    -0.340754
      4 C                    -0.095534
      5 H                     0.142288
      6 H                     0.161176
      7 H                     0.140054
      8 C                    -0.194895
      9 C                     0.263657
     10 H                     0.146303
     11 H                     0.164243
     12 H                     0.143752
     13 H                     0.155156
     14 C                     0.073723
     15 O                    -0.290248
     16 H                     0.060810
     17 O                    -0.243248
     18 C                    -0.231207
     19 H                     0.141511
     20 H                     0.126662
     21 H                     0.119940
     22 H                     0.132653
  ----------------------------------------
  Sum of atomic charges =     0.000000

                    Cartesian Multipole Moments
 -----------------------------------------------------------------
    Charge (ESU x 10^10)
                 0.0000
    Dipole Moment (Debye)
         X      -3.3203      Y       3.6922      Z      -0.6197
       Tot       5.0040
    Quadrupole Moments (Debye-Ang)
        XX     -65.2121     XY       7.8756     YY     -62.9988
        XZ       5.3078     YZ       0.2891     ZZ     -61.0382

 Total job time:  37.75s(wall), 597.55s(cpu)
        *  Thank you very much for using Q-Chem.  Have a nice day.  *
