 Q-Chem 5.4, Q-Chem, Inc., Pleasanton, CA (2021)
 Q-Chem 5.4.1 for Intel X86 EM64T Linux

User input:
--------------------------------------------------------------
$molecule
0 1
C  -2.226258  0.398227  -0.369848
C  -1.842722  -1.643016  0.059106
C  0.282917  -0.2257  1.273293
C  -1.293201  1.197469  0.278895
H  -2.145034  0.279533  -1.44638
H  -3.237572  0.340653  0.02009
H  -1.513654  1.657068  1.23813
C  -0.536273  -1.819467  -0.352997
C  0.520656  -1.086944  0.223499
H  -2.634616  -2.157352  -0.477956
H  1.034658  0.460009  1.644739
H  -2.070644  -1.44195  1.100513
H  -0.53073  -0.442446  1.950905
C  -0.176568  1.776505  -0.47937
O  0.524552  2.697536  -0.115488
H  0.003365  1.276293  -1.458992
O  1.675077  -1.108275  -0.500524
H  -0.325902  -2.301798  -1.303854
C  2.733209  -0.286766  -0.049381
H  2.464306  0.775349  -0.102802
H  3.015642  -0.537845  0.980573
H  3.572596  -0.483441  -0.716056
$end

$rem
METHOD wB97X-V
BASIS def2-TZVP
XC_GRID 000099000590
MEM_TOTAL          8000
MEM_STATIC         4000
$end

--------------------------------------------------------------

             Standard Nuclear Orientation (Angstroms)
    I     Atom           X                Y                Z
 ----------------------------------------------------------------
    1      C       2.2262581650    -0.3982266432    -0.3698477650
    2      C       1.8427219405     1.6430162751     0.0591064230
    3      C      -0.2829170575     0.2256999517     1.2732930489
    4      C       1.2932011698    -1.1974687980     0.2788950511
    5      H       2.1450342641    -0.2795325306    -1.4463797601
    6      H       3.2375721202    -0.3406525969     0.0200903443
    7      H       1.5136541129    -1.6570678852     1.2381300224
    8      C       0.5362729668     1.8194672052    -0.3529966903
    9      C      -0.5206560270     1.0869440474     0.2234991206
   10      H       2.6346159496     2.1573524050    -0.4779554391
   11      H      -1.0346580346    -0.4600091562     1.6447388961
   12      H       2.0706438523     1.4419501795     1.1005134239
   13      H       0.5307298543     0.4424459484     1.9509051559
   14      C       0.1765682983    -1.7765048126    -0.4793701270
   15      O      -0.5245516571    -2.6975359152    -0.1154883009
   16      H      -0.0033646463    -1.2762927196    -1.4589920897
   17      O      -1.6750769551     1.1082750257    -0.5005239946
   18      H       0.3259020209     2.3017982924    -1.3038536581
   19      C      -2.7332089283     0.2867658817    -0.0493811937
   20      H      -2.4643058287    -0.7753490885    -0.1028022845
   21      H      -3.0156420554     0.5378447421     0.9805728055
   22      H      -3.5725958778     0.4834408815    -0.7160562573
 ----------------------------------------------------------------

    8    -462.4259124690      7.55e-06  Convergence criterion met
 Total energy in the final basis set =     -462.4259124690

                    Orbital Energies (a.u.)
 --------------------------------------------------------------

 Alpha MOs
 -- Occupied --
-19.2461 -19.1908 -10.3484 -10.3375 -10.3187 -10.2972 -10.2904 -10.2851
-10.2841 -10.2796  -1.2039  -1.1610  -0.9673  -0.9163  -0.8711  -0.8439
 -0.7703  -0.7454  -0.6903  -0.6604  -0.6410  -0.6089  -0.5917  -0.5777
 -0.5735  -0.5530  -0.5243  -0.5208  -0.5113  -0.5097  -0.4880  -0.4797
 -0.4762  -0.4474  -0.4227  -0.3556  -0.3288  -0.3164

          Ground-State Mulliken Net Atomic Charges

     Atom                 Charge (a.u.)
  ----------------------------------------
      1 C                    -0.307329
      2 C                    -0.248196
      3 C                    -0.365014
      4 C                    -0.050979
      5 H                     0.151026
      6 H                     0.153563
      7 H                     0.136107
      8 C                    -0.169454
      9 C                     0.202737
     10 H                     0.145273
     11 H                     0.181623
     12 H                     0.148877
     13 H                     0.143765
     14 C                     0.052689
     15 O                    -0.308863
     16 H                     0.082296
     17 O                    -0.248487
     18 H                     0.128036
     19 C                    -0.234625
     20 H                     0.145890
     21 H                     0.125104
     22 H                     0.135961
  ----------------------------------------
  Sum of atomic charges =     0.000000

                    Cartesian Multipole Moments
 -----------------------------------------------------------------
    Charge (ESU x 10^10)
                 0.0000
    Dipole Moment (Debye)
         X       1.6017      Y       2.4309      Z       0.4620
       Tot       2.9476
    Quadrupole Moments (Debye-Ang)
        XX     -53.2459     XY       0.0792     YY     -74.9873
        XZ      -0.4713     YZ      -0.9997     ZZ     -58.5489

 Total job time:  43.05s(wall), 681.60s(cpu)
        *  Thank you very much for using Q-Chem.  Have a nice day.  *
