 Q-Chem 5.4, Q-Chem, Inc., Pleasanton, CA (2021)
 Q-Chem 5.4.1 for Intel X86 EM64T Linux

User input:
--------------------------------------------------------------
$molecule
0 1
C  0.953839  -1.270069  0.758124
C  -0.24861  -1.002944  -0.913206
C  0.326401  1.748529  -0.337817
C  1.614509  -0.099908  1.096694
H  0.204599  -1.681339  1.427376
H  1.513896  -1.996538  0.175278
H  1.334597  0.488755  1.962683
C  -1.220918  -0.126166  -0.473179
C  -0.911128  1.226481  -0.138504
H  -0.563708  -2.017603  -1.136051
H  0.563144  2.743452  0.026394
H  -1.636041  1.807834  0.42177
H  0.611688  -0.63662  -1.462356
H  1.047155  1.301254  -1.010696
O  -2.425002  -0.684091  -0.182068
C  -3.422744  0.113785  0.419443
H  -3.666242  0.985064  -0.199239
H  -4.302191  -0.524084  0.504588
H  -3.122931  0.450183  1.418971
C  2.785056  0.284398  0.332859
O  3.095556  -0.225878  -0.735817
H  3.393168  1.114764  0.747878
$end

$rem
METHOD wB97X-V
BASIS def2-TZVP
XC_GRID 000099000590
MEM_TOTAL          8000
MEM_STATIC         4000
$end

--------------------------------------------------------------

             Standard Nuclear Orientation (Angstroms)
    I     Atom           X                Y                Z
 ----------------------------------------------------------------
    1      C       0.9538390158     1.2700691207    -0.7581239764
    2      C      -0.2486099496     1.0029440452     0.9132060364
    3      C       0.3264010908    -1.7485289258     0.3378169384
    4      C       1.6145090313     0.0999081437    -1.0966940255
    5      H       0.2045989963     1.6813391283    -1.4273759500
    6      H       1.5138960128     1.9965381124    -0.1752779631
    7      H       1.3345970268    -0.4887548338    -1.9626830393
    8      C      -1.2209179413     0.1261660414     0.4731790257
    9      C      -0.9111279223    -1.2264809422     0.1385039770
   10      H      -0.5637079644     2.0176030323     1.1360510744
   11      H       0.5631441027    -2.7434519098    -0.0263940976
   12      H      -1.6360409216    -1.8078339377    -0.4217700287
   13      H       0.6116880669     0.6366200435     1.4623560095
   14      H       1.0471550945    -1.3012539340     1.0106959399
   15      O      -2.4250019567     0.6840910285     0.1820680649
   16      C      -3.4227439527    -0.1137849707    -0.4194429429
   17      H      -3.6662419257    -0.9850639949     0.1992390336
   18      H      -4.3021909660     0.5240840158    -0.5045879069
   19      H      -3.1229309643    -0.4501829333    -1.4189709589
   20      C       2.7850560520    -0.2843978592    -0.3328590585
   21      O       3.0955560615     0.2258781125     0.7358169523
   22      H       3.3931680599    -1.1147638347    -0.7478780958
 ----------------------------------------------------------------

    9    -462.4274512504      3.94e-06  Convergence criterion met
 Total energy in the final basis set =     -462.4274512504

                    Orbital Energies (a.u.)
 --------------------------------------------------------------

 Alpha MOs
 -- Occupied --
-19.2590 -19.1770 -10.3501 -10.3345 -10.3328 -10.2940 -10.2910 -10.2868
-10.2774 -10.2573  -1.2166  -1.1451  -0.9648  -0.9054  -0.8914  -0.8270
 -0.7710  -0.7651  -0.6706  -0.6547  -0.6378  -0.6207  -0.6019  -0.5998
 -0.5489  -0.5401  -0.5313  -0.5231  -0.5128  -0.4968  -0.4962  -0.4726
 -0.4697  -0.4470  -0.4177  -0.3654  -0.3431  -0.2884

          Ground-State Mulliken Net Atomic Charges

     Atom                 Charge (a.u.)
  ----------------------------------------
      1 C                    -0.214087
      2 C                    -0.335847
      3 C                    -0.320653
      4 C                    -0.179143
      5 H                     0.143394
      6 H                     0.171900
      7 H                     0.124799
      8 C                     0.263111
      9 C                    -0.167651
     10 H                     0.148476
     11 H                     0.141399
     12 H                     0.131721
     13 H                     0.188643
     14 H                     0.177213
     15 O                    -0.234163
     16 C                    -0.236040
     17 H                     0.132934
     18 H                     0.144228
     19 H                     0.125593
     20 C                     0.083025
     21 O                    -0.357405
     22 H                     0.068552
  ----------------------------------------
  Sum of atomic charges =     0.000000

                    Cartesian Multipole Moments
 -----------------------------------------------------------------
    Charge (ESU x 10^10)
                -0.0000
    Dipole Moment (Debye)
         X      -4.1768      Y      -1.5257      Z      -2.1909
       Tot       4.9572
    Quadrupole Moments (Debye-Ang)
        XX     -65.5237     XY      -0.7699     YY     -57.6464
        XZ      -1.7907     YZ       1.2071     ZZ     -63.2149

 Total job time:  42.60s(wall), 675.13s(cpu)
        *  Thank you very much for using Q-Chem.  Have a nice day.  *
