 Q-Chem 5.4, Q-Chem, Inc., Pleasanton, CA (2021)
 Q-Chem 5.4.1 for Intel X86 EM64T Linux

User input:
--------------------------------------------------------------
$molecule
0 1
C  -1.303938  1.128337  1.009288
C  -0.21994  1.642456  -0.736804
C  0.129669  -1.180381  -0.705184
C  -1.406518  -0.249262  1.048597
H  -0.692104  1.647131  1.738688
H  -2.148685  1.681289  0.60835
H  -0.847223  -0.847279  1.758677
C  1.02113  1.074371  -0.53753
C  1.179881  -0.331808  -0.465705
H  -0.29974  2.725889  -0.742598
H  0.264344  -2.242544  -0.528572
H  -0.999016  1.128395  -1.293358
H  -0.684516  -0.880813  -1.349053
C  -2.474354  -0.893776  0.283519
O  -3.119375  -0.324243  -0.579418
H  -2.657923  -1.964723  0.504944
O  2.324247  -0.917067  0.001728
C  3.353873  -0.086213  0.486074
H  4.141189  -0.755561  0.833321
H  3.757336  0.560846  -0.302352
H  3.013504  0.53647  1.323049
H  1.835046  1.719041  -0.223108
$end

$rem
METHOD wB97X-V
BASIS def2-TZVP
XC_GRID 000099000590
MEM_TOTAL          8000
MEM_STATIC         4000
$end

--------------------------------------------------------------

             Standard Nuclear Orientation (Angstroms)
    I     Atom           X                Y                Z
 ----------------------------------------------------------------
    1      C       1.3039380437     1.1283371071    -1.0092878785
    2      C       0.2199400088     1.6424558535     0.7368041745
    3      C      -0.1296688812    -1.1803811562     0.7051838296
    4      C       1.4065180976    -0.2492618841    -1.0485970445
    5      H       0.6921040298     1.6471311717    -1.7386878209
    6      H       2.1486850188     1.6812890914    -0.6083498043
    7      H       0.8472231269    -0.8472788199    -1.7586771217
    8      C      -1.0211299674     1.0743708294     0.5375300951
    9      C      -1.1798809121    -0.3318081680     0.4657049234
   10      H       0.2997399667     2.7258888559     0.7425983064
   11      H      -0.2643438384    -2.2425441401     0.5285716998
   12      H       0.9990160240     1.1283948164     1.2933581189
   13      H       0.6845161016    -0.8808132026     1.3490528729
   14      C       2.4743541161    -0.8937759353    -0.2835191134
   15      O       3.1193750866    -0.3242430147     0.5794179611
   16      H       2.6579231596    -1.9647229013    -0.5049442416
   17      O      -2.3242468854    -0.9170671559    -0.0017281573
   18      C      -3.3538729135    -0.0862131372    -0.4860740654
   19      H      -4.1411888846    -0.7555611258    -0.8333211532
   20      H      -3.7573359454     0.5608457516     0.3023520095
   21      H      -3.0135039306     0.5364699774    -1.3230489871
   22      H      -1.8350459898     1.7190408359     0.2231081662
 ----------------------------------------------------------------

    8    -462.4232450458      7.75e-06  Convergence criterion met
 Total energy in the final basis set =     -462.4232450458

                    Orbital Energies (a.u.)
 --------------------------------------------------------------

 Alpha MOs
 -- Occupied --
-19.2455 -19.1909 -10.3462 -10.3363 -10.3270 -10.2935 -10.2868 -10.2838
-10.2762 -10.2744  -1.2032  -1.1601  -0.9618  -0.9104  -0.8839  -0.8195
 -0.7787  -0.7615  -0.6659  -0.6515  -0.6432  -0.6201  -0.6008  -0.5916
 -0.5525  -0.5420  -0.5276  -0.5240  -0.5142  -0.5041  -0.4916  -0.4764
 -0.4673  -0.4414  -0.4268  -0.3546  -0.3219  -0.3184

          Ground-State Mulliken Net Atomic Charges

     Atom                 Charge (a.u.)
  ----------------------------------------
      1 C                    -0.244000
      2 C                    -0.282161
      3 C                    -0.395267
      4 C                    -0.151560
      5 H                     0.137413
      6 H                     0.176239
      7 H                     0.142334
      8 C                    -0.218323
      9 C                     0.294183
     10 H                     0.145273
     11 H                     0.143902
     12 H                     0.174648
     13 H                     0.188068
     14 C                     0.100537
     15 O                    -0.332522
     16 H                     0.078039
     17 O                    -0.247185
     18 C                    -0.228901
     19 H                     0.139579
     20 H                     0.126475
     21 H                     0.120033
     22 H                     0.133196
  ----------------------------------------
  Sum of atomic charges =     0.000000

                    Cartesian Multipole Moments
 -----------------------------------------------------------------
    Charge (ESU x 10^10)
                 0.0000
    Dipole Moment (Debye)
         X      -3.3001      Y       1.2076      Z      -1.9425
       Tot       4.0153
    Quadrupole Moments (Debye-Ang)
        XX     -66.9314     XY      -3.0043     YY     -56.8340
        XZ      -1.1430     YZ       0.6586     ZZ     -62.9314

 Total job time:  46.10s(wall), 620.84s(cpu)
        *  Thank you very much for using Q-Chem.  Have a nice day.  *
