 Q-Chem 5.4, Q-Chem, Inc., Pleasanton, CA (2021)
 Q-Chem 5.4.1 for Intel X86 EM64T Linux

User input:
--------------------------------------------------------------
$molecule
0 1
C  -0.654719  -1.21953  -0.756811
C  0.530045  -0.66952  0.758717
C  -0.71546  1.857766  0.239837
C  -1.61489  -0.248376  -1.045171
H  0.089304  -1.458374  -1.511647
H  -0.998247  -2.065619  -0.166366
H  -1.568728  0.354823  -1.94397
C  1.243486  0.418868  0.267372
C  0.596492  1.644818  -0.040171
H  1.05543  -1.586852  1.001663
H  -1.211317  2.755636  -0.116057
H  1.157058  2.344049  -0.654569
H  -0.330986  -0.4757  1.391452
H  -1.250991  1.281209  0.983867
O  2.514081  0.345092  -0.194949
C  3.234399  -0.848195  0.032763
H  2.782283  -1.693587  -0.499024
H  4.237984  -0.673201  -0.353601
H  3.285988  -1.080578  1.102666
C  -2.774297  -0.155623  -0.187132
O  -2.85319  -0.703705  0.906919
H  -3.605244  0.485849  -0.546595
$end

$rem
METHOD wB97X-V
BASIS def2-TZVP
XC_GRID 000099000590
MEM_TOTAL          8000
MEM_STATIC         4000
$end

--------------------------------------------------------------

             Standard Nuclear Orientation (Angstroms)
    I     Atom           X                Y                Z
 ----------------------------------------------------------------
    1      C       0.6547189844     1.2195300717    -0.7568108934
    2      C      -0.5300450941     0.6695199055     0.7587169849
    3      C       0.7154600146    -1.8577660123     0.2398368454
    4      C       1.6148900318     0.2483761255    -1.0451709168
    5      H      -0.0893039754     1.4583741144    -1.5116469195
    6      H       0.9982469219     2.0656190312    -0.1663657989
    7      H       1.5687281063    -0.3548227985    -1.9439699716
    8      C      -1.2434860305    -0.4188680736     0.2673718464
    9      C      -0.5964919743    -1.6448180277    -0.0401712186
   10      H      -1.0554301370     1.5868518688     1.0016630310
   11      H       1.2113170640    -2.7556359667    -0.1160572008
   12      H      -1.1570579146    -2.3440489916    -0.6545693140
   13      H       0.3309858721     0.4756998770     1.3914520223
   14      H       1.2509909505    -1.2812090602     0.9838669287
   15      O      -2.5140810037    -0.3450920721    -0.1949492269
   16      C      -3.2343990539     0.8481948866     0.0327628307
   17      H      -2.7822830460     1.6935869460    -0.4990240682
   18      H      -4.2379840244     0.6732008896    -0.3536012474
   19      H      -3.2859881280     1.0805777929     1.1026658474
   20      C       2.7742969807     0.1556230865    -0.1871318520
   21      O       2.8531898956     0.7037049947     0.9069192001
   22      H       3.6052440226    -0.4858488575    -0.5465948551
 ----------------------------------------------------------------

    9    -462.4297604866      4.06e-06  Convergence criterion met
 Total energy in the final basis set =     -462.4297604866

                    Orbital Energies (a.u.)
 --------------------------------------------------------------

 Alpha MOs
 -- Occupied --
-19.2644 -19.1736 -10.3535 -10.3359 -10.3296 -10.2935 -10.2928 -10.2855
-10.2800 -10.2553  -1.2224  -1.1415  -0.9672  -0.9071  -0.8744  -0.8559
 -0.7682  -0.7539  -0.6747  -0.6546  -0.6346  -0.6249  -0.6042  -0.5992
 -0.5616  -0.5342  -0.5318  -0.5222  -0.5101  -0.4952  -0.4921  -0.4749
 -0.4659  -0.4537  -0.4213  -0.3662  -0.3407  -0.2871

          Ground-State Mulliken Net Atomic Charges

     Atom                 Charge (a.u.)
  ----------------------------------------
      1 C                    -0.171893
      2 C                    -0.369371
      3 C                    -0.289090
      4 C                    -0.200470
      5 H                     0.131328
      6 H                     0.166763
      7 H                     0.129047
      8 C                     0.232604
      9 C                    -0.143075
     10 H                     0.158643
     11 H                     0.140939
     12 H                     0.128976
     13 H                     0.180391
     14 H                     0.177982
     15 O                    -0.229977
     16 C                    -0.233211
     17 H                     0.126081
     18 H                     0.143861
     19 H                     0.136800
     20 C                     0.082579
     21 O                    -0.367214
     22 H                     0.068307
  ----------------------------------------
  Sum of atomic charges =     0.000000

                    Cartesian Multipole Moments
 -----------------------------------------------------------------
    Charge (ESU x 10^10)
                -0.0000
    Dipole Moment (Debye)
         X      -3.7556      Y      -0.1426      Z      -1.5387
       Tot       4.0611
    Quadrupole Moments (Debye-Ang)
        XX     -64.2524     XY      -9.8509     YY     -58.0917
        XZ      -5.3419     YZ       0.3923     ZZ     -63.8598

 Total job time:  46.24s(wall), 691.68s(cpu)
        *  Thank you very much for using Q-Chem.  Have a nice day.  *
