 Q-Chem 5.4, Q-Chem, Inc., Pleasanton, CA (2021)
 Q-Chem 5.4.1 for Intel X86 EM64T Linux

User input:
--------------------------------------------------------------
$molecule
0 1
C  -0.521065  -1.631278  0.166662
C  1.137703  -0.711963  1.049613
C  -0.885432  1.283811  1.077449
C  -1.678502  -0.875748  0.317115
H  -0.088621  -1.710379  -0.82858
H  -0.383034  -2.512066  0.786281
H  -2.329519  -1.020965  1.17504
C  1.264551  0.458843  0.313113
C  0.242193  1.434285  0.320764
H  1.90555  -1.476126  1.002448
H  -1.730731  1.951348  0.944471
H  0.282185  2.182822  -0.465595
H  0.632769  -0.65017  2.004923
H  -0.889511  0.701837  1.990713
O  2.187112  0.637669  -0.667691
C  3.232779  -0.304253  -0.768531
H  2.856245  -1.290222  -1.066638
H  3.904891  0.070818  -1.539889
H  3.775026  -0.397585  0.179937
C  -2.256239  -0.165255  -0.823654
O  -3.386895  0.271296  -0.88443
H  -1.552908  -0.051679  -1.681322
$end

$rem
METHOD wB97X-V
BASIS def2-TZVP
XC_GRID 000099000590
MEM_TOTAL          8000
MEM_STATIC         4000
$end

--------------------------------------------------------------

             Standard Nuclear Orientation (Angstroms)
    I     Atom           X                Y                Z
 ----------------------------------------------------------------
    1      C       0.5210650346    -1.6312781068    -0.1666616449
    2      C      -1.1377029348    -0.7119632015    -1.0496128010
    3      C       0.8854321208     1.2838107379    -1.0774491074
    4      C       1.6785020565    -0.8757481629    -0.3171147586
    5      H       0.0886210267    -1.7103789362     0.8285803652
    6      H       0.3830340138    -2.5120662017    -0.7862805054
    7      H       2.3295190574    -1.0209653177    -1.1750397317
    8      C      -1.2645509065     0.4588429194    -0.3131129883
    9      C      -0.2421928794     1.4342848898    -0.3207641379
   10      H      -1.9055499562    -1.4761261726    -1.0024476837
   11      H       1.7307311386     1.9513477357    -0.9444712089
   12      H      -0.2821848631     2.1828220162     0.4655947426
   13      H      -0.6327689275    -0.6501703677    -2.0049228079
   14      H       0.8895111099     0.7018365923    -1.9907130146
   15      O      -2.1871119072     0.6376691013     0.6676909779
   16      C      -3.2327789339    -0.3042528536     0.7685311219
   17      H      -2.8562449630    -1.2902218165     1.0666382812
   18      H      -3.9048909280     0.0708182880     1.5398890583
   19      H      -3.7750259311    -0.3975849897    -0.1799368663
   20      C       2.2562390696    -0.1652549972     0.8236541315
   21      O       3.3868950814     0.2712959811     0.8844300684
   22      H       1.5529080678    -0.0516788410     1.6813221093
 ----------------------------------------------------------------

    8    -462.4267948536      8.95e-06  Convergence criterion met
 Total energy in the final basis set =     -462.4267948536

                    Orbital Energies (a.u.)
 --------------------------------------------------------------

 Alpha MOs
 -- Occupied --
-19.2602 -19.1765 -10.3492 -10.3369 -10.3349 -10.2976 -10.2968 -10.2903
-10.2781 -10.2694  -1.2182  -1.1476  -0.9696  -0.9143  -0.8754  -0.8567
 -0.7604  -0.7551  -0.6822  -0.6714  -0.6436  -0.6171  -0.6028  -0.5734
 -0.5664  -0.5582  -0.5287  -0.5202  -0.5146  -0.5069  -0.4884  -0.4785
 -0.4775  -0.4540  -0.4221  -0.3591  -0.3407  -0.2983

          Ground-State Mulliken Net Atomic Charges

     Atom                 Charge (a.u.)
  ----------------------------------------
      1 C                    -0.231923
      2 C                    -0.370157
      3 C                    -0.222322
      4 C                    -0.148780
      5 H                     0.145255
      6 H                     0.151799
      7 H                     0.137653
      8 C                     0.229663
      9 C                    -0.193184
     10 H                     0.158225
     11 H                     0.166457
     12 H                     0.136211
     13 H                     0.153764
     14 H                     0.143007
     15 O                    -0.233536
     16 C                    -0.232270
     17 H                     0.123185
     18 H                     0.143645
     19 H                     0.132733
     20 C                     0.071006
     21 O                    -0.316162
     22 H                     0.055733
  ----------------------------------------
  Sum of atomic charges =     0.000000

                    Cartesian Multipole Moments
 -----------------------------------------------------------------
    Charge (ESU x 10^10)
                 0.0000
    Dipole Moment (Debye)
         X      -5.1151      Y      -1.9195      Z      -1.5458
       Tot       5.6779
    Quadrupole Moments (Debye-Ang)
        XX     -72.7091     XY       2.7063     YY     -59.7631
        XZ      -7.1630     YZ       0.3646     ZZ     -59.8511

 Total job time:  38.36s(wall), 606.58s(cpu)
        *  Thank you very much for using Q-Chem.  Have a nice day.  *
