 Q-Chem 5.4, Q-Chem, Inc., Pleasanton, CA (2021)
 Q-Chem 5.4.1 for Intel X86 EM64T Linux

User input:
--------------------------------------------------------------
$molecule
0 1
C  -0.812507  -1.490551  -0.535187
C  0.688053  -1.221747  0.98202
C  -0.500346  1.354575  0.724203
C  -1.554528  -0.340578  -0.742816
H  -0.087138  -1.810566  -1.274961
H  -1.259606  -2.296474  0.043839
H  -1.340707  0.33618  -1.562318
C  1.399987  -0.1409  0.49956
C  0.792672  1.136092  0.351506
H  1.189717  -2.183685  1.012368
H  -1.009316  2.276276  0.461563
H  1.285604  1.885185  -0.259064
H  -0.083525  -1.062257  1.722528
H  -0.990233  0.754694  1.481016
O  2.610277  -0.437065  -0.046583
C  3.313052  0.57574  -0.734758
H  3.50987  1.437928  -0.087244
H  4.260212  0.128715  -1.035919
H  2.770711  0.908983  -1.627584
C  -2.832378  -0.16354  -0.058167
O  -3.631955  0.725048  -0.26802
H  -3.036193  -0.933396  0.724431
$end

$rem
METHOD wB97X-V
BASIS def2-TZVP
XC_GRID 000099000590
MEM_TOTAL          8000
MEM_STATIC         4000
$end

--------------------------------------------------------------

             Standard Nuclear Orientation (Angstroms)
    I     Atom           X                Y                Z
 ----------------------------------------------------------------
    1      C       0.8125069261     1.4905509406    -0.5351870216
    2      C      -0.6880530146     1.2217468935     0.9820200287
    3      C       0.5003461243    -1.3545750454     0.7242030591
    4      C       1.5545279854     0.3405779775    -0.7428160142
    5      H       0.0871378864     1.8105658807    -1.2749610086
    6      H       1.2596058971     2.2964739806     0.0438389451
    7      H       1.3407070001    -0.3361800552    -1.5623179910
    8      C      -1.3999869672     0.1408998409     0.4995600765
    9      C      -0.7926718989    -1.1360921283     0.3515060911
   10      H      -1.1897170684     2.1836848658     1.0123680190
   11      H       1.0093161691    -2.2762760231     0.4615630675
   12      H      -1.2856038741    -1.8851851717    -0.2590638758
   13      H       0.0835250159     1.0622569560     1.7225280103
   14      H       0.9902331122    -0.7546939985     1.4810160297
   15      O      -2.6102769999     0.4370647584    -0.0465828958
   16      C      -3.3130519623    -0.5757402989    -0.7347578499
   17      H      -3.5098698945    -1.4379282938    -0.0872438225
   18      H      -4.2602119964    -0.1287153603    -1.0359188337
   19      H      -2.7707109692    -0.9089832906    -1.6275838573
   20      C       2.8323780153     0.1635400674    -0.0581670468
   21      O       3.6319550597    -0.7250478924    -0.2680200476
   22      H       3.0361929943     0.9333960987     0.7244309279
 ----------------------------------------------------------------

    8    -462.4243598464      9.45e-06  Convergence criterion met
 Total energy in the final basis set =     -462.4243598464

                    Orbital Energies (a.u.)
 --------------------------------------------------------------

 Alpha MOs
 -- Occupied --
-19.2578 -19.1834 -10.3488 -10.3408 -10.3338 -10.2976 -10.2959 -10.2850
-10.2813 -10.2674  -1.2153  -1.1532  -0.9673  -0.9140  -0.8920  -0.8276
 -0.7714  -0.7591  -0.6819  -0.6681  -0.6474  -0.6142  -0.6007  -0.5725
 -0.5710  -0.5471  -0.5338  -0.5225  -0.5107  -0.5040  -0.5006  -0.4803
 -0.4794  -0.4481  -0.4213  -0.3579  -0.3461  -0.2980

          Ground-State Mulliken Net Atomic Charges

     Atom                 Charge (a.u.)
  ----------------------------------------
      1 C                    -0.269329
      2 C                    -0.335244
      3 C                    -0.274775
      4 C                    -0.125807
      5 H                     0.149465
      6 H                     0.161049
      7 H                     0.127595
      8 C                     0.284839
      9 C                    -0.197097
     10 H                     0.148950
     11 H                     0.164039
     12 H                     0.133697
     13 H                     0.156161
     14 H                     0.143446
     15 O                    -0.239485
     16 C                    -0.234707
     17 H                     0.132376
     18 H                     0.143029
     19 H                     0.126479
     20 C                     0.060683
     21 O                    -0.310727
     22 H                     0.055364
  ----------------------------------------
  Sum of atomic charges =     0.000000

                    Cartesian Multipole Moments
 -----------------------------------------------------------------
    Charge (ESU x 10^10)
                 0.0000
    Dipole Moment (Debye)
         X      -4.4512      Y       0.7122      Z       0.0161
       Tot       4.5079
    Quadrupole Moments (Debye-Ang)
        XX     -74.3926     XY       8.8795     YY     -58.5884
        XZ       6.8712     YZ       1.7378     ZZ     -60.7656

 Total job time:  37.50s(wall), 593.38s(cpu)
        *  Thank you very much for using Q-Chem.  Have a nice day.  *
