 Q-Chem 5.4, Q-Chem, Inc., Pleasanton, CA (2021)
 Q-Chem 5.4.1 for Intel X86 EM64T Linux

User input:
--------------------------------------------------------------
$molecule
0 1
C  -1.490007  1.352767  0.789711
C  -0.049489  2.268877  -0.488414
C  0.28556  -0.518796  -0.868519
C  -1.398362  -0.029297  0.683097
H  -1.12631  1.845273  1.683311
H  -2.32131  1.852859  0.296212
H  -0.870406  -0.616183  1.427331
C  1.130946  1.636316  -0.156594
C  1.290201  0.244476  -0.316221
H  -0.160608  3.326002  -0.264902
H  0.303192  -1.602052  -0.871271
H  -0.636133  1.928461  -1.334963
H  -0.360412  -0.066611  -1.608945
C  -2.369778  -0.758239  -0.142152
O  -2.547198  -1.956258  -0.12355
H  -2.958173  -0.107039  -0.83068
O  2.369797  -0.270009  0.339237
C  2.56658  -1.664118  0.258633
H  3.518718  -1.866303  0.749042
H  1.769739  -2.211983  0.776414
H  2.610373  -1.998522  -0.785109
H  1.856637  2.13432  0.480818
$end

$rem
METHOD wB97X-V
BASIS def2-TZVP
XC_GRID 000099000590
MEM_TOTAL          8000
MEM_STATIC         4000
$end

--------------------------------------------------------------

             Standard Nuclear Orientation (Angstroms)
    I     Atom           X                Y                Z
 ----------------------------------------------------------------
    1      C       1.4900072066     1.3527667845    -0.7897110583
    2      C       0.0494893320     2.2688769802     0.4884139427
    3      C      -0.2855599789    -0.5187959722     0.8685190176
    4      C       1.3983620512    -0.0292972024    -0.6830970224
    5      H       1.1263102479     1.8452728037    -1.6833110645
    6      H       2.3213102717     1.8528587022    -0.2962120845
    7      H       0.8704059721    -0.6161831608    -1.4273309991
    8      C      -1.1309457455     1.6363161062     0.1565939780
    9      C      -1.2902009012     0.2444761283     0.3162210152
   10      H       0.1606084485     3.3260019620     0.2649019146
   11      H      -0.3031921021    -1.6020519701     0.8712710449
   12      H       0.6361333072     1.9284609345     1.3349629415
   13      H       0.3604120848    -0.0666110273     1.6089449957
   14      C       2.3697779819    -0.7582392924     0.1421519797
   15      O       2.5471978453    -1.9562583130     0.1235500066
   16      H       2.9581730673    -0.1070393422     0.8306799538
   17      O      -2.3697969705    -0.2700087652    -0.3392369541
   18      C      -2.5665801278    -1.6641177408    -0.2586329162
   19      H      -3.5187181589    -1.8663026447    -0.7490418954
   20      H      -1.7697391987    -2.2119828443    -0.7764139157
   21      H      -2.6103731486    -1.9985217098     0.7851090929
   22      H      -1.8566366993     2.1343201729    -0.4808180224
 ----------------------------------------------------------------

    8    -462.4237202236      7.71e-06  Convergence criterion met
 Total energy in the final basis set =     -462.4237202236

                    Orbital Energies (a.u.)
 --------------------------------------------------------------

 Alpha MOs
 -- Occupied --
-19.2479 -19.1943 -10.3502 -10.3372 -10.3240 -10.2961 -10.2902 -10.2841
-10.2830 -10.2796  -1.2059  -1.1643  -0.9665  -0.9172  -0.8707  -0.8460
 -0.7682  -0.7492  -0.6877  -0.6647  -0.6406  -0.6111  -0.5923  -0.5775
 -0.5756  -0.5553  -0.5240  -0.5179  -0.5149  -0.5120  -0.4860  -0.4810
 -0.4771  -0.4484  -0.4263  -0.3563  -0.3308  -0.3153

          Ground-State Mulliken Net Atomic Charges

     Atom                 Charge (a.u.)
  ----------------------------------------
      1 C                    -0.305646
      2 C                    -0.241470
      3 C                    -0.396629
      4 C                    -0.068597
      5 H                     0.146824
      6 H                     0.159373
      7 H                     0.128230
      8 C                    -0.163888
      9 C                     0.246643
     10 H                     0.144996
     11 H                     0.178332
     12 H                     0.143040
     13 H                     0.142647
     14 C                     0.077412
     15 O                    -0.298019
     16 H                     0.062212
     17 O                    -0.248518
     18 C                    -0.229540
     19 H                     0.138151
     20 H                     0.128512
     21 H                     0.129479
     22 H                     0.126455
  ----------------------------------------
  Sum of atomic charges =     0.000000

                    Cartesian Multipole Moments
 -----------------------------------------------------------------
    Charge (ESU x 10^10)
                 0.0000
    Dipole Moment (Debye)
         X      -1.5650      Y       2.3434      Z       0.0273
       Tot       2.8181
    Quadrupole Moments (Debye-Ang)
        XX     -66.5743     XY      12.9391     YY     -61.5035
        XZ       1.9714     YZ      -0.2329     ZZ     -61.0816

 Total job time:  38.57s(wall), 606.35s(cpu)
        *  Thank you very much for using Q-Chem.  Have a nice day.  *
