 Q-Chem 5.4, Q-Chem, Inc., Pleasanton, CA (2021)
 Q-Chem 5.4.1 for Intel X86 EM64T Linux

User input:
--------------------------------------------------------------
$molecule
0 1
C  2.32405  -0.191466  -0.077619
C  1.539927  1.683066  -0.18386
C  -0.428355  0.380076  1.412398
C  1.49925  -1.014764  0.680831
H  2.305293  -0.352203  -1.150495
H  3.276765  0.123548  0.338552
H  1.705387  -1.237318  1.722774
C  0.235956  1.519068  -0.621214
C  -0.739738  0.87438  0.167668
H  2.248984  2.161249  -0.853637
H  -1.118996  -0.230256  1.981923
H  1.735756  1.867674  0.867861
H  0.382782  0.821161  1.972439
C  0.458056  -1.770504  -0.005272
O  0.165743  -1.599537  -1.176922
H  -0.091309  -2.512135  0.612167
O  -1.893129  0.60768  -0.499562
C  -2.80076  -0.28315  0.103604
H  -3.642731  -0.369509  -0.582755
H  -2.344986  -1.271142  0.242749
H  -3.155629  0.097036  1.070153
H  -0.012549  1.656511  -1.669078
$end

$rem
METHOD wB97X-V
BASIS def2-TZVP
XC_GRID 000099000590
MEM_TOTAL          8000
MEM_STATIC         4000
$end

--------------------------------------------------------------

             Standard Nuclear Orientation (Angstroms)
    I     Atom           X                Y                Z
 ----------------------------------------------------------------
    1      C       2.3240500979    -0.1914655829    -0.0776188989
    2      C       1.5399268039     1.6830662888    -0.1838599923
    3      C      -0.4283550271     0.3800760415     1.4123980143
    4      C       1.4992502105    -1.0147636830     0.6808311150
    5      H       2.3052931482    -0.3522026289    -1.1504948929
    6      H       3.2767650384     0.1235485844     0.3385521106
    7      H       1.7053872215    -1.2373176086     1.7227741287
    8      C       0.2359558400     1.5190680650    -0.6212140160
    9      C      -0.7397380764     0.8743799424     0.1676679872
   10      H       2.2489837438     2.1612493741    -0.8536369950
   11      H      -1.1189959438    -0.2302560448     1.9819230227
   12      H       1.7357557503     1.8676743620     0.8678610048
   13      H       0.3827818902     0.8211611923     1.9724390154
   14      C       0.4580563459    -1.7705038751    -0.0052718789
   15      O       0.1657433461    -1.5995369684    -1.1769218925
   16      H      -0.0913085511    -2.5121349373     0.6121671381
   17      O      -1.8931290187     0.6076797332    -0.4995620288
   18      C      -2.8007598918    -0.2831503861     0.1036039858
   19      H      -3.6427308622    -0.3695095468    -0.5827550302
   20      H      -2.3449857388    -1.2711423085     0.2427490360
   21      H      -3.1556289744     0.0970355965     1.0701529624
   22      H      -0.0125491575     1.6565109837    -1.6690780273
 ----------------------------------------------------------------

    8    -462.4275765578      7.68e-06  Convergence criterion met
 Total energy in the final basis set =     -462.4275765578

                    Orbital Energies (a.u.)
 --------------------------------------------------------------

 Alpha MOs
 -- Occupied --
-19.2389 -19.1820 -10.3389 -10.3339 -10.3166 -10.2940 -10.2857 -10.2808
-10.2773 -10.2765  -1.1997  -1.1515  -0.9616  -0.9081  -0.8682  -0.8406
 -0.7758  -0.7444  -0.6689  -0.6441  -0.6355  -0.6223  -0.5971  -0.5880
 -0.5570  -0.5383  -0.5238  -0.5165  -0.5113  -0.5046  -0.4832  -0.4679
 -0.4581  -0.4405  -0.4232  -0.3487  -0.3284  -0.3093

          Ground-State Mulliken Net Atomic Charges

     Atom                 Charge (a.u.)
  ----------------------------------------
      1 C                    -0.244403
      2 C                    -0.267035
      3 C                    -0.411593
      4 C                    -0.113194
      5 H                     0.166123
      6 H                     0.146515
      7 H                     0.136095
      8 C                    -0.128193
      9 C                     0.242989
     10 H                     0.145601
     11 H                     0.161197
     12 H                     0.150520
     13 H                     0.137971
     14 C                     0.068934
     15 O                    -0.327843
     16 H                     0.073483
     17 O                    -0.235454
     18 C                    -0.215643
     19 H                     0.138309
     20 H                     0.119400
     21 H                     0.121135
     22 H                     0.135085
  ----------------------------------------
  Sum of atomic charges =     0.000000

                    Cartesian Multipole Moments
 -----------------------------------------------------------------
    Charge (ESU x 10^10)
                 0.0000
    Dipole Moment (Debye)
         X       0.7595      Y       0.8094      Z       2.9544
       Tot       3.1560
    Quadrupole Moments (Debye-Ang)
        XX     -53.7763     XY       5.0343     YY     -64.0331
        XZ      -1.0486     YZ      -4.9464     ZZ     -61.6310

 Total job time:  40.74s(wall), 645.16s(cpu)
        *  Thank you very much for using Q-Chem.  Have a nice day.  *
