 Q-Chem 5.4, Q-Chem, Inc., Pleasanton, CA (2021)
 Q-Chem 5.4.1 for Intel X86 EM64T Linux

User input:
--------------------------------------------------------------
$molecule
0 1
C  -0.892267  -1.197547  1.224135
C  0.539899  0.151552  1.457718
C  -1.270803  1.942485  0.091217
C  -1.932399  -0.759725  0.400445
H  -0.224527  -1.926373  0.775528
H  -1.091801  -1.353571  2.281513
H  -2.883796  -0.409916  0.78487
C  0.839562  0.722757  0.217597
C  -0.060126  1.631199  -0.420681
H  1.300652  -0.439746  1.956554
H  -1.976553  2.534195  -0.482423
H  0.204994  1.920022  -1.433294
H  -0.031637  0.779796  2.130228
H  -1.553307  1.715907  1.111349
O  1.911474  0.412518  -0.529557
C  2.672754  -0.71878  -0.159097
H  2.034907  -1.607039  -0.122071
H  3.424132  -0.841909  -0.938084
H  3.171291  -0.568521  0.806058
C  -1.673717  -0.790886  -1.010963
O  -0.562334  -1.058664  -1.468103
H  -2.504908  -0.520009  -1.691167
$end

$rem
METHOD wB97X-V
BASIS def2-TZVP
XC_GRID 000099000590
MEM_TOTAL          8000
MEM_STATIC         4000
$end

--------------------------------------------------------------

             Standard Nuclear Orientation (Angstroms)
    I     Atom           X                Y                Z
 ----------------------------------------------------------------
    1      C      -0.8922666417     1.1975474037    -1.2241346045
    2      C       0.5398993488    -0.1515515551    -1.4577179008
    3      C      -1.2708028424    -1.9424849636    -0.0912176896
    4      C      -1.9323987406     0.7597251561    -0.4004448610
    5      H      -0.2245266709     1.9263732374    -0.7755272909
    6      H      -1.0918005251     1.3535717605    -2.2815125739
    7      H      -2.8837957086     0.4099163083    -0.7848700788
    8      C       0.8395622021    -0.7227569753    -0.2175970589
    9      C      -0.0601258890    -1.6311991647     0.4206805430
   10      H       1.3006524170     0.4397465915    -1.9565536230
   11      H      -1.9765529186    -2.5341951365     0.4824220384
   12      H       0.2049939957    -1.9200225084     1.4332934752
   13      H      -0.0316365955    -0.7797953168    -2.1302281707
   14      H      -1.5533067279    -1.7159066170    -1.1113496443
   15      O       1.9114741304    -0.4125182512     0.5295571585
   16      C       2.6727541987     0.7187798527     0.1590976160
   17      H       2.0349072253     1.6070388812     0.1220718436
   18      H       3.4241321189     0.8419085744     0.9380847371
   19      H       3.1712912977     0.5685211611    -0.8060573808
   20      C      -1.6737168902     0.7908856800     1.0109631769
   21      O      -0.5623339321     1.0586634996     1.4681033844
   22      H      -2.5049079696     0.5200084748     1.6911669982
 ----------------------------------------------------------------

    9    -462.4299025610      4.44e-06  Convergence criterion met
 Total energy in the final basis set =     -462.4299025610

                    Orbital Energies (a.u.)
 --------------------------------------------------------------

 Alpha MOs
 -- Occupied --
-19.2564 -19.1648 -10.3570 -10.3248 -10.3180 -10.2925 -10.2877 -10.2850
-10.2788 -10.2491  -1.2172  -1.1313  -0.9621  -0.9052  -0.8709  -0.8507
 -0.7639  -0.7480  -0.6710  -0.6528  -0.6248  -0.6210  -0.5976  -0.5944
 -0.5568  -0.5361  -0.5261  -0.5157  -0.5090  -0.4981  -0.4789  -0.4667
 -0.4575  -0.4466  -0.4106  -0.3710  -0.3344  -0.2798

          Ground-State Mulliken Net Atomic Charges

     Atom                 Charge (a.u.)
  ----------------------------------------
      1 C                    -0.165149
      2 C                    -0.387212
      3 C                    -0.264594
      4 C                    -0.237139
      5 H                     0.151864
      6 H                     0.139706
      7 H                     0.130666
      8 C                     0.256733
      9 C                    -0.122635
     10 H                     0.153137
     11 H                     0.141457
     12 H                     0.134993
     13 H                     0.156444
     14 H                     0.139299
     15 O                    -0.208471
     16 C                    -0.221389
     17 H                     0.139866
     18 H                     0.142503
     19 H                     0.120957
     20 C                     0.118844
     21 O                    -0.383649
     22 H                     0.063768
  ----------------------------------------
  Sum of atomic charges =     0.000000

                    Cartesian Multipole Moments
 -----------------------------------------------------------------
    Charge (ESU x 10^10)
                -0.0000
    Dipole Moment (Debye)
         X       0.5678      Y      -0.8513      Z      -2.9819
       Tot       3.1526
    Quadrupole Moments (Debye-Ang)
        XX     -54.5072     XY       6.3757     YY     -62.7504
        XZ      -0.4264     YZ      -3.9017     ZZ     -61.6092

 Total job time:  51.26s(wall), 744.51s(cpu)
        *  Thank you very much for using Q-Chem.  Have a nice day.  *
