 Q-Chem 5.4, Q-Chem, Inc., Pleasanton, CA (2021)
 Q-Chem 5.4.1 for Intel X86 EM64T Linux

User input:
--------------------------------------------------------------
$molecule
0 1
C  0.848114  1.510121  -0.8465
C  -0.932682  1.677895  0.326947
C  0.58663  -0.325261  1.667397
C  1.8204  0.752866  -0.218291
H  0.331426  1.089993  -1.706309
H  0.934598  2.592133  -0.853301
H  2.558291  1.212215  0.433752
C  -1.353929  0.363085  0.379268
C  -0.584381  -0.63286  1.038624
H  -1.53496  2.375573  -0.246163
H  1.239056  -1.113284  2.029183
H  -0.816667  -1.678848  0.870075
H  -0.378507  2.094885  1.156802
H  0.807247  0.671623  2.026157
O  -2.394677  0.053007  -0.439878
C  -2.708498  -1.306997  -0.656797
H  -2.992782  -1.8075  0.275886
H  -3.558227  -1.311074  -1.339093
H  -1.870597  -1.844552  -1.116866
C  2.089085  -0.618003  -0.651008
O  3.070021  -1.273735  -0.367861
H  1.289939  -1.040416  -1.306052
$end

$rem
METHOD wB97X-V
BASIS def2-TZVP
XC_GRID 000099000590
MEM_TOTAL          8000
MEM_STATIC         4000
$end

--------------------------------------------------------------

             Standard Nuclear Orientation (Angstroms)
    I     Atom           X                Y                Z
 ----------------------------------------------------------------
    1      C       0.8481138695    -1.5101209328     0.8465001980
    2      C      -0.9326821651    -1.6778949829    -0.3269467423
    3      C       0.5866299514     0.3252607070    -1.6673970735
    4      C       1.8203999112    -0.7528660966     0.2182910650
    5      H       0.3314259160    -1.0899927665     1.7063091447
    6      H       0.9345977927    -2.5921329379     0.8533013593
    7      H       2.5582908659    -1.2122152473    -0.4337518801
    8      C      -1.3539290726    -0.3630849608    -0.3792679322
    9      C      -0.5843810146     0.6328598851    -1.0386240972
   10      H      -1.5349602037    -2.3755728537     0.2461633745
   11      H       1.2390560004     1.1132836061    -2.0291832049
   12      H      -0.8166669369     1.6788479270    -0.8700752503
   13      H      -0.3785072109    -2.0948851474    -1.1568016902
   14      H       0.8072468735    -0.6716233627    -2.0261569276
   15      O      -2.3946770347    -0.0530067634     0.4398780412
   16      C      -2.7084979338     1.3069972916     0.6567968424
   17      H      -2.9927819163     1.8075001713    -0.2758862275
   18      H      -3.5582269203     1.3110744549     1.3390928582
   19      H      -1.8705968866     1.8445523013     1.1168657451
   20      C       2.0890850171     0.6180029495     0.6510078533
   21      O       3.0700210582     1.2737348371     0.3678607355
   22      H       1.2899390598     1.0404161050     1.3060518051
 ----------------------------------------------------------------

    8    -462.4257759022      8.93e-06  Convergence criterion met
 Total energy in the final basis set =     -462.4257759022

                    Orbital Energies (a.u.)
 --------------------------------------------------------------

 Alpha MOs
 -- Occupied --
-19.2581 -19.1784 -10.3491 -10.3389 -10.3335 -10.2988 -10.2961 -10.2860
-10.2833 -10.2690  -1.2155  -1.1494  -0.9686  -0.9135  -0.8930  -0.8283
 -0.7730  -0.7577  -0.6822  -0.6692  -0.6466  -0.6141  -0.6005  -0.5739
 -0.5679  -0.5479  -0.5336  -0.5219  -0.5120  -0.5082  -0.5007  -0.4785
 -0.4771  -0.4479  -0.4193  -0.3616  -0.3430  -0.2973

          Ground-State Mulliken Net Atomic Charges

     Atom                 Charge (a.u.)
  ----------------------------------------
      1 C                    -0.263656
      2 C                    -0.326735
      3 C                    -0.244649
      4 C                    -0.146710
      5 H                     0.156037
      6 H                     0.154219
      7 H                     0.138790
      8 C                     0.248597
      9 C                    -0.216784
     10 H                     0.149391
     11 H                     0.165737
     12 H                     0.143842
     13 H                     0.160834
     14 H                     0.142544
     15 O                    -0.237108
     16 C                    -0.235840
     17 H                     0.132279
     18 H                     0.142920
     19 H                     0.128349
     20 C                     0.080622
     21 O                    -0.314977
     22 H                     0.042297
  ----------------------------------------
  Sum of atomic charges =     0.000000

                    Cartesian Multipole Moments
 -----------------------------------------------------------------
    Charge (ESU x 10^10)
                 0.0000
    Dipole Moment (Debye)
         X      -3.8352      Y      -1.2169      Z      -0.3262
       Tot       4.0369
    Quadrupole Moments (Debye-Ang)
        XX     -74.7257     XY     -11.2051     YY     -57.7916
        XZ      -4.5489     YZ       0.4046     ZZ     -60.0208

 Total job time:  38.88s(wall), 611.98s(cpu)
        *  Thank you very much for using Q-Chem.  Have a nice day.  *
