 Q-Chem 5.4, Q-Chem, Inc., Pleasanton, CA (2021)
 Q-Chem 5.4.1 for Intel X86 EM64T Linux

User input:
--------------------------------------------------------------
$molecule
0 1
C  -0.550114  -1.46263  -0.280255
C  0.924316  -0.643239  0.976302
C  -0.799432  1.532811  0.375473
C  -1.521912  -0.528551  -0.626264
H  0.153542  -1.799091  -1.034087
H  -0.808327  -2.216096  0.461924
H  -1.504371  -0.024268  -1.585608
C  1.371535  0.457279  0.257259
C  0.497136  1.523978  -0.052766
H  1.585169  -1.480232  1.172328
H  -1.509892  2.258919  -0.006455
H  0.824066  2.20247  -0.835828
H  0.19083  -0.466432  1.752045
H  -1.100105  1.034154  1.289354
O  2.537886  0.483114  -0.438258
C  3.462554  -0.558275  -0.211973
H  3.074543  -1.521942  -0.56344
H  4.354252  -0.301154  -0.783151
H  3.71618  -0.638663  0.851718
C  -2.779975  -0.486953  0.114674
O  -3.766151  0.147509  -0.197025
H  -2.774411  -1.099175  1.048765
$end

$rem
METHOD wB97X-V
BASIS def2-TZVP
XC_GRID 000099000590
MEM_TOTAL          8000
MEM_STATIC         4000
$end

--------------------------------------------------------------

             Standard Nuclear Orientation (Angstroms)
    I     Atom           X                Y                Z
 ----------------------------------------------------------------
    1      C       0.5501140806     1.4626299117    -0.2802550071
    2      C      -0.9243159836     0.6432389431     0.9763019380
    3      C       0.7994320197    -1.5328110828     0.3754730413
    4      C       1.5219120859     0.5285508970    -0.6262639525
    5      H      -0.1535418825     1.7990909098    -1.0340870424
    6      H       0.8083270558     2.2160959182     0.4619239949
    7      H       1.5043711229     0.0242678852    -1.5856079470
    8      C      -1.3715349636    -0.4572790611     0.2572589320
    9      C      -0.4971359613    -1.5239780743    -0.0527660161
   10      H      -1.5851689834     1.4802319526     1.1723278983
   11      H       1.5098920289    -2.2589190951    -0.0064549182
   12      H      -0.8240659339    -2.2024700806    -0.8358280220
   13      H      -0.1908300198     0.4664319450     1.7520449726
   14      H       1.1001049847    -1.0341540746     1.2893540484
   15      O      -2.5378859332    -0.4831140574    -0.4382581192
   16      C      -3.4625539321     0.5582749553    -0.2119731731
   17      H      -3.0745429063     1.5219419468    -0.5634401680
   18      H      -4.3542519096     0.3011539576    -0.7831512093
   19      H      -3.7161799782     0.6386629713     0.8517178147
   20      C       2.7799750528     0.4869528929     0.1146741036
   21      O       3.7661510598    -0.1475091215    -0.1970248449
   22      H       2.7744110180     1.0991749046     1.0487650957
 ----------------------------------------------------------------

    8    -462.4255979047      9.50e-06  Convergence criterion met
 Total energy in the final basis set =     -462.4255979047

                    Orbital Energies (a.u.)
 --------------------------------------------------------------

 Alpha MOs
 -- Occupied --
-19.2600 -19.1830 -10.3491 -10.3407 -10.3348 -10.2977 -10.2959 -10.2888
-10.2773 -10.2682  -1.2180  -1.1530  -0.9688  -0.9152  -0.8743  -0.8563
 -0.7616  -0.7546  -0.6834  -0.6701  -0.6442  -0.6174  -0.6029  -0.5728
 -0.5700  -0.5581  -0.5300  -0.5218  -0.5109  -0.5036  -0.4898  -0.4831
 -0.4782  -0.4541  -0.4240  -0.3560  -0.3455  -0.2995

          Ground-State Mulliken Net Atomic Charges

     Atom                 Charge (a.u.)
  ----------------------------------------
      1 C                    -0.236505
      2 C                    -0.373810
      3 C                    -0.238720
      4 C                    -0.140001
      5 H                     0.137385
      6 H                     0.158519
      7 H                     0.133636
      8 C                     0.261574
      9 C                    -0.183974
     10 H                     0.158871
     11 H                     0.164438
     12 H                     0.128506
     13 H                     0.147554
     14 H                     0.142242
     15 O                    -0.235460
     16 C                    -0.231431
     17 H                     0.122049
     18 H                     0.143149
     19 H                     0.133291
     20 C                     0.064681
     21 O                    -0.309398
     22 H                     0.053403
  ----------------------------------------
  Sum of atomic charges =     0.000000

                    Cartesian Multipole Moments
 -----------------------------------------------------------------
    Charge (ESU x 10^10)
                 0.0000
    Dipole Moment (Debye)
         X      -5.0358      Y       1.9234      Z       0.9791
       Tot       5.4788
    Quadrupole Moments (Debye-Ang)
        XX     -74.8176     XY      -2.7082     YY     -58.8612
        XZ       3.0089     YZ       1.9116     ZZ     -60.4387

 Total job time:  38.02s(wall), 597.73s(cpu)
        *  Thank you very much for using Q-Chem.  Have a nice day.  *
