 Q-Chem 5.4, Q-Chem, Inc., Pleasanton, CA (2021)
 Q-Chem 5.4.1 for Intel X86 EM64T Linux

User input:
--------------------------------------------------------------
$molecule
0 1
C  2.265477  0.137456  -0.524106
C  0.983396  1.814014  -0.580965
C  -0.031263  0.455733  1.706779
C  1.832974  -0.717741  0.472848
H  2.004618  -0.127621  -1.542723
H  3.17978  0.707609  -0.389757
H  2.324105  -0.790708  1.4372
C  -0.297846  1.299345  -0.555166
C  -0.806208  0.63722  0.590596
H  1.334629  2.288555  -1.492316
H  -0.404651  -0.172459  2.508494
H  1.440207  2.192152  0.326908
H  0.795912  1.112059  1.932223
C  0.786533  -1.67591  0.134072
O  0.19951  -1.658415  -0.937154
H  0.515726  -2.415171  0.912534
O  -1.991385  -0.031614  0.581308
C  -2.650271  -0.222891  -0.656549
H  -3.521413  -0.839121  -0.432977
H  -2.990237  0.730652  -1.079185
H  -2.002537  -0.744273  -1.36736
H  -0.837892  1.2152  -1.491338
$end

$rem
METHOD wB97X-V
BASIS def2-TZVP
XC_GRID 000099000590
MEM_TOTAL          8000
MEM_STATIC         4000
$end

--------------------------------------------------------------

             Standard Nuclear Orientation (Angstroms)
    I     Atom           X                Y                Z
 ----------------------------------------------------------------
    1      C       2.2654769779     0.1374559690    -0.5241060228
    2      C       0.9833959711     1.8140139600    -0.5809651334
    3      C      -0.0312628736     0.4557332261     1.7067790935
    4      C       1.8329740460    -0.7177409151     0.4728481063
    5      H       2.0046179103    -0.1276211508    -1.5427229743
    6      H       3.1797799859     0.7076089863    -0.3897571507
    7      H       2.3241051106    -0.7907078012     1.4372000820
    8      C      -0.2978460263     1.2993449608    -0.5551659875
    9      C      -0.8062079485     0.6372200941     0.5905961240
   10      H       1.3346289094     2.2885548539    -1.4923162125
   11      H      -0.4046508189    -0.1724586806     2.5084941920
   12      H       1.4402070311     2.1921520672     0.3269077917
   13      H       0.7959121403     1.1120592540     1.9322229613
   14      C       0.7865330251    -1.6759099566     0.1340722884
   15      O       0.1995099535    -1.6584150831    -0.9371536744
   16      H       0.5157260784    -2.4151708659     0.9125343931
   17      O      -1.9913849479    -0.0316139091     0.5813082815
   18      C      -2.6502710303    -0.2228910553    -0.6565486520
   19      H      -3.5214130143    -0.8391210306    -0.4329765216
   20      H      -2.9902370603     0.7306518946    -1.0791847410
   21      H      -2.0025370769    -0.7442731374    -1.3673596343
   22      H      -0.8378920887     1.2151998502    -1.4913379416
 ----------------------------------------------------------------

    8    -462.4277979977      7.67e-06  Convergence criterion met
 Total energy in the final basis set =     -462.4277979977

                    Orbital Energies (a.u.)
 --------------------------------------------------------------

 Alpha MOs
 -- Occupied --
-19.2353 -19.1862 -10.3408 -10.3328 -10.3086 -10.2937 -10.2854 -10.2807
-10.2765 -10.2735  -1.1937  -1.1546  -0.9585  -0.9078  -0.8796  -0.8098
 -0.7773  -0.7576  -0.6617  -0.6439  -0.6379  -0.6211  -0.5939  -0.5848
 -0.5489  -0.5377  -0.5220  -0.5164  -0.5094  -0.5063  -0.4950  -0.4707
 -0.4551  -0.4305  -0.4179  -0.3524  -0.3212  -0.3160

          Ground-State Mulliken Net Atomic Charges

     Atom                 Charge (a.u.)
  ----------------------------------------
      1 C                    -0.250547
      2 C                    -0.295430
      3 C                    -0.365763
      4 C                    -0.144539
      5 H                     0.164694
      6 H                     0.148293
      7 H                     0.138968
      8 C                    -0.151925
      9 C                     0.248526
     10 H                     0.148097
     11 H                     0.146183
     12 H                     0.151804
     13 H                     0.146729
     14 C                     0.134615
     15 O                    -0.356025
     16 H                     0.078379
     17 O                    -0.249380
     18 C                    -0.236487
     19 H                     0.131611
     20 H                     0.117048
     21 H                     0.156958
     22 H                     0.138190
  ----------------------------------------
  Sum of atomic charges =     0.000000

                    Cartesian Multipole Moments
 -----------------------------------------------------------------
    Charge (ESU x 10^10)
                 0.0000
    Dipole Moment (Debye)
         X       1.2581      Y       1.6986      Z       0.5096
       Tot       2.1743
    Quadrupole Moments (Debye-Ang)
        XX     -56.6277     XY       2.9679     YY     -63.2569
        XZ       4.3380     YZ      -5.0977     ZZ     -59.7840

 Total job time:  44.18s(wall), 695.83s(cpu)
        *  Thank you very much for using Q-Chem.  Have a nice day.  *
