 Q-Chem 5.4, Q-Chem, Inc., Pleasanton, CA (2021)
 Q-Chem 5.4.1 for Intel X86 EM64T Linux

User input:
--------------------------------------------------------------
$molecule
0 1
C  1.592419  1.385897  -0.726054
C  -0.257361  2.307206  0.024929
C  0.023828  -0.104371  1.501304
C  1.873774  0.26925  0.034707
H  1.194235  1.25507  -1.727926
H  2.139471  2.308051  -0.559591
H  2.556282  0.320037  0.87846
C  -1.172437  1.285835  -0.092804
C  -1.022524  0.076516  0.629181
H  -0.359972  3.184215  -0.607277
H  0.194585  -1.088632  1.924019
H  0.279207  2.476365  0.951162
H  0.467603  0.738436  2.011039
C  1.610821  -1.075616  -0.504492
O  2.130197  -2.097947  -0.118888
H  0.873249  -1.084587  -1.340973
O  -1.763097  -1.038143  0.356285
C  -2.622668  -1.018114  -0.760354
H  -3.067595  -2.011662  -0.813382
H  -3.420111  -0.273898  -0.64524
H  -2.07354  -0.81796  -1.689453
H  -1.875321  1.323667  -0.918519
$end

$rem
METHOD wB97X-V
BASIS def2-TZVP
XC_GRID 000099000590
MEM_TOTAL          8000
MEM_STATIC         4000
$end

--------------------------------------------------------------

             Standard Nuclear Orientation (Angstroms)
    I     Atom           X                Y                Z
 ----------------------------------------------------------------
    1      C       1.5924184347     1.3858975004    -0.7260541010
    2      C      -0.2573619269     2.3072059072     0.0249287362
    3      C       0.0238279373    -0.1043707978     1.5013040535
    4      C       1.8737738330     0.2692507033     0.0347070495
    5      H       1.1942345074     1.2550702229    -1.7279260937
    6      H       2.1394700868     2.3080517259    -0.5595912067
    7      H       2.5562817939     0.3200380665     0.8784600593
    8      C      -1.1724375431     1.2858345508    -0.0928041541
    9      C      -1.0225241093     0.0765156997     0.6291810052
   10      H      -0.3599732389     3.1842147875    -0.6072773792
   11      H       0.1945852943    -1.0886316797     1.9240191843
   12      H       0.2792059879     2.4763652266     0.9511617272
   13      H       0.4676026108     0.7384364334     2.0110389555
   14      C       1.6108213474    -1.0756154642    -0.5044917836
   15      O       2.1301977195    -2.0979462208    -0.1188876395
   16      H       0.8732493707    -1.0845868470    -1.3409728000
   17      O      -1.7630966871    -1.0381436117     0.3562851311
   18      C      -2.6226676679    -1.0181150761    -0.7603538920
   19      H      -3.0675942961    -2.0116632488    -0.8133817747
   20      H      -3.4201109482    -0.2738993587    -0.6452400069
   21      H      -2.0735397204    -0.8179609909    -1.6894529047
   22      H      -1.8753215375     1.3236661823    -0.9185191757
 ----------------------------------------------------------------

    8    -462.4221053035      7.53e-06  Convergence criterion met
 Total energy in the final basis set =     -462.4221053035

                    Orbital Energies (a.u.)
 --------------------------------------------------------------

 Alpha MOs
 -- Occupied --
-19.2462 -19.1887 -10.3466 -10.3385 -10.3267 -10.2980 -10.2889 -10.2850
-10.2835 -10.2792  -1.2044  -1.1597  -0.9656  -0.9162  -0.8872  -0.8203
 -0.7761  -0.7556  -0.6875  -0.6619  -0.6446  -0.6075  -0.5931  -0.5774
 -0.5728  -0.5449  -0.5294  -0.5258  -0.5127  -0.5087  -0.4991  -0.4795
 -0.4719  -0.4423  -0.4256  -0.3521  -0.3285  -0.3175

          Ground-State Mulliken Net Atomic Charges

     Atom                 Charge (a.u.)
  ----------------------------------------
      1 C                    -0.296002
      2 C                    -0.275983
      3 C                    -0.311573
      4 C                    -0.092630
      5 H                     0.146171
      6 H                     0.154583
      7 H                     0.136618
      8 C                    -0.200738
      9 C                     0.215242
     10 H                     0.146694
     11 H                     0.164566
     12 H                     0.150263
     13 H                     0.153902
     14 C                     0.105157
     15 O                    -0.294458
     16 H                     0.045867
     17 O                    -0.241005
     18 C                    -0.228982
     19 H                     0.143429
     20 H                     0.126917
     21 H                     0.117121
     22 H                     0.134840
  ----------------------------------------
  Sum of atomic charges =     0.000000

                    Cartesian Multipole Moments
 -----------------------------------------------------------------
    Charge (ESU x 10^10)
                 0.0000
    Dipole Moment (Debye)
         X      -2.2539      Y       3.9150      Z      -1.2691
       Tot       4.6923
    Quadrupole Moments (Debye-Ang)
        XX     -63.5745     XY       9.3441     YY     -65.5729
        XZ       5.2918     YZ       0.5683     ZZ     -58.6270

 Total job time:  39.06s(wall), 614.43s(cpu)
        *  Thank you very much for using Q-Chem.  Have a nice day.  *
