 Q-Chem 5.4, Q-Chem, Inc., Pleasanton, CA (2021)
 Q-Chem 5.4.1 for Intel X86 EM64T Linux

User input:
--------------------------------------------------------------
$molecule
0 1
C  -1.553318  0.904444  1.043212
C  -0.631469  1.8166  -0.524342
C  0.488305  -0.790322  -0.701942
C  -1.305681  -0.463201  0.989105
H  -1.14328  1.483383  1.863478
H  -2.516721  1.238018  0.666579
H  -0.656441  -0.954545  1.704428
C  0.718241  1.592067  -0.316813
C  1.258912  0.289542  -0.342075
H  -0.997828  2.836869  -0.449329
H  0.850823  -1.808701  -0.622998
H  -1.204476  1.188198  -1.20294
H  -0.350225  -0.638646  -1.366666
C  -2.142755  -1.289863  0.125571
O  -2.868461  -0.834537  -0.742692
H  -2.063051  -2.386968  0.269204
O  2.511411  0.199989  0.193365
C  3.119945  -1.070257  0.195837
H  4.136427  -0.922032  0.560483
H  2.595294  -1.765031  0.863844
H  3.148824  -1.498967  -0.813643
H  1.34397  2.370745  0.11086
$end

$rem
METHOD wB97X-V
BASIS def2-TZVP
XC_GRID 000099000590
MEM_TOTAL          8000
MEM_STATIC         4000
$end

--------------------------------------------------------------

             Standard Nuclear Orientation (Angstroms)
    I     Atom           X                Y                Z
 ----------------------------------------------------------------
    1      C       1.5533180033     0.9044440479    -1.0432118602
    2      C       0.6314690302     1.8165999267     0.5243422261
    3      C      -0.4883050991    -0.7903220374     0.7019419370
    4      C       1.3056809359    -0.4632009457    -0.9891050081
    5      H       1.1432800408     1.4833831549    -1.8634778035
    6      H       2.5167210154     1.2380179609    -0.6665788140
    7      H       0.6564409200    -0.9545448381    -1.7044280675
    8      C      -0.7182409784     1.5920670146     0.3168131871
    9      C      -1.2589120423     0.2895420384     0.3420750428
   10      H       0.9978280809     2.8368689168     0.4493293384
   11      H      -0.8508231480    -1.8087010114     0.6229978249
   12      H       1.2044759918     1.1881978267     1.2029401659
   13      H       0.3502249008    -0.6386461489     1.3666659625
   14      C       2.1427548858    -1.2898630782    -0.1255710863
   15      O       2.8684608982    -0.8345372057     0.7426919702
   16      H       2.0630508338    -2.3869680591    -0.2692042036
   17      O      -2.5114110407     0.1999891563    -0.1933649808
   18      C      -3.1199451027    -1.0702568137    -0.1958371224
   19      H      -4.1364270913    -0.9220317254    -0.5604831181
   20      H      -2.5952941291    -1.7650307685    -0.8638441901
   21      H      -3.1488241350    -1.4989669193     0.8136428318
   22      H      -1.3439699356     2.3707450906    -0.1108597374
 ----------------------------------------------------------------

    8    -462.4258264431      7.77e-06  Convergence criterion met
 Total energy in the final basis set =     -462.4258264431

                    Orbital Energies (a.u.)
 --------------------------------------------------------------

 Alpha MOs
 -- Occupied --
-19.2476 -19.1896 -10.3450 -10.3362 -10.3261 -10.2923 -10.2879 -10.2810
-10.2798 -10.2758  -1.2059  -1.1586  -0.9640  -0.9102  -0.8687  -0.8460
 -0.7781  -0.7480  -0.6684  -0.6509  -0.6406  -0.6209  -0.6021  -0.5924
 -0.5592  -0.5464  -0.5252  -0.5215  -0.5098  -0.5046  -0.4809  -0.4764
 -0.4687  -0.4485  -0.4275  -0.3539  -0.3305  -0.3110

          Ground-State Mulliken Net Atomic Charges

     Atom                 Charge (a.u.)
  ----------------------------------------
      1 C                    -0.236594
      2 C                    -0.248667
      3 C                    -0.448061
      4 C                    -0.135571
      5 H                     0.141748
      6 H                     0.172820
      7 H                     0.132341
      8 C                    -0.183455
      9 C                     0.280700
     10 H                     0.143022
     11 H                     0.154838
     12 H                     0.174032
     13 H                     0.175665
     14 C                     0.100713
     15 O                    -0.336448
     16 H                     0.072965
     17 O                    -0.250104
     18 C                    -0.225183
     19 H                     0.138812
     20 H                     0.119233
     21 H                     0.129299
     22 H                     0.127893
  ----------------------------------------
  Sum of atomic charges =     0.000000

                    Cartesian Multipole Moments
 -----------------------------------------------------------------
    Charge (ESU x 10^10)
                 0.0000
    Dipole Moment (Debye)
         X      -2.7199      Y      -0.3297      Z      -1.6517
       Tot       3.1992
    Quadrupole Moments (Debye-Ang)
        XX     -68.4768     XY       7.1848     YY     -54.8053
        XZ      -3.2833     YZ       0.6336     ZZ     -63.4650

 Total job time:  38.31s(wall), 607.78s(cpu)
        *  Thank you very much for using Q-Chem.  Have a nice day.  *
