 Gaussian 16, Revision C.01,
 Gaussian 16:  AS64L-G16RevC.01  3-Jul-2019

 ----------------
 # M062X/def2tzvp
 ----------------

 ------------------------------------------
 DATS_13_exo_ii_TZVPcreated by GaussianPrep
 ------------------------------------------
 Symbolic Z-matrix:
 Charge =  0 Multiplicity = 1

                         Standard orientation:
 ---------------------------------------------------------------------
 Center     Atomic      Atomic             Coordinates (Angstroms)
 Number     Number       Type             X           Y           Z
 ---------------------------------------------------------------------
      1          6           0       -1.553318    0.904444    1.043212
      2          6           0       -0.631469    1.816600   -0.524342
      3          6           0        0.488305   -0.790322   -0.701942
      4          6           0       -1.305681   -0.463201    0.989105
      5          1           0       -1.143280    1.483383    1.863478
      6          1           0       -2.516721    1.238018    0.666579
      7          1           0       -0.656441   -0.954545    1.704428
      8          6           0        0.718241    1.592067   -0.316813
      9          6           0        1.258912    0.289542   -0.342075
     10          1           0       -0.997828    2.836869   -0.449329
     11          1           0        0.850823   -1.808701   -0.622998
     12          1           0       -1.204476    1.188198   -1.202940
     13          1           0       -0.350225   -0.638646   -1.366666
     14          6           0       -2.142755   -1.289863    0.125571
     15          8           0       -2.868461   -0.834537   -0.742692
     16          1           0       -2.063051   -2.386968    0.269204
     17          8           0        2.511411    0.199989    0.193365
     18          6           0        3.119945   -1.070257    0.195837
     19          1           0        4.136427   -0.922032    0.560483
     20          1           0        2.595294   -1.765031    0.863844
     21          1           0        3.148824   -1.498967   -0.813643
     22          1           0        1.343970    2.370745    0.110860
 ---------------------------------------------------------------------

 SCF Done:  E(RM062X) =  -462.369842792     A.U. after   16 cycles

 The electronic state is 1-A.
 Alpha  occ. eigenvalues --  -19.66065 -19.60731 -10.61516 -10.60613 -10.59500
 Alpha  occ. eigenvalues --  -10.56165 -10.55679 -10.55143 -10.54936 -10.54634
 Alpha  occ. eigenvalues --   -1.19808  -1.15232  -0.93077  -0.87626  -0.83310
 Alpha  occ. eigenvalues --   -0.81054  -0.74087  -0.70933  -0.63145  -0.61345
 Alpha  occ. eigenvalues --   -0.59872  -0.58087  -0.56325  -0.55646  -0.51849
 Alpha  occ. eigenvalues --   -0.51129  -0.48554  -0.48049  -0.47028  -0.46255
 Alpha  occ. eigenvalues --   -0.44094  -0.43627  -0.42995  -0.41252  -0.38928
 Alpha  occ. eigenvalues --   -0.32388  -0.29367  -0.27567
 Alpha virt. eigenvalues --   -0.03872   0.02148   0.05991   0.07515   0.09346
 Alpha virt. eigenvalues --    0.09622   0.10351   0.11281   0.12202   0.13089
 Alpha virt. eigenvalues --    0.13471   0.13892   0.14530   0.15240   0.16419

 Mulliken charges:
               1
     1  C   -0.319978
     2  C   -0.384591
     3  C   -0.506443
     4  C   -0.136413
     5  H    0.167242
     6  H    0.200344
     7  H    0.163228
     8  C   -0.115899
     9  C    0.330017
    10  H    0.160530
    11  H    0.172426
    12  H    0.210863
    13  H    0.200824
    14  C    0.083074
    15  O   -0.347452
    16  H    0.100823
    17  O   -0.287451
    18  C   -0.295087
    19  H    0.152856
    20  H    0.143653
    21  H    0.153801
    22  H    0.153635
 Sum of Mulliken charges =  -0.00000

 Dipole moment (field-independent basis, Debye):
    X=              2.6988    Y=             -0.3356    Z=              1.6672  Tot=              3.1899
 Quadrupole moment (field-independent basis, Debye-Ang):
   XX=            -68.5499   YY=            -54.5622   ZZ=            -63.4596
   XY=             -7.2573   XZ=             -3.2703   YZ=             -0.6417

 Normal termination of Gaussian 16 at Tue Jun 21 11:23:52 2022.
