 Gaussian 16, Revision C.01,
 Gaussian 16:  AS64L-G16RevC.01  3-Jul-2019

 ----------------
 # M062X/def2tzvp
 ----------------

 --------------------------------------------
 DATS_14_endo_iii_TZVPcreated by GaussianPrep
 --------------------------------------------
 Symbolic Z-matrix:
 Charge =  0 Multiplicity = 1

                         Standard orientation:
 ---------------------------------------------------------------------
 Center     Atomic      Atomic             Coordinates (Angstroms)
 Number     Number       Type             X           Y           Z
 ---------------------------------------------------------------------
      1          6           0        0.848114    1.510121   -0.846500
      2          6           0       -0.932682    1.677895    0.326947
      3          6           0        0.586630   -0.325261    1.667397
      4          6           0        1.820400    0.752866   -0.218291
      5          1           0        0.331426    1.089993   -1.706309
      6          1           0        0.934598    2.592133   -0.853301
      7          1           0        2.558291    1.212215    0.433752
      8          6           0       -1.353929    0.363085    0.379268
      9          6           0       -0.584381   -0.632860    1.038624
     10          1           0       -1.534960    2.375573   -0.246163
     11          1           0        1.239056   -1.113284    2.029183
     12          1           0       -0.816667   -1.678848    0.870075
     13          1           0       -0.378507    2.094885    1.156802
     14          1           0        0.807247    0.671623    2.026157
     15          8           0       -2.394677    0.053007   -0.439878
     16          6           0       -2.708498   -1.306997   -0.656797
     17          1           0       -2.992782   -1.807500    0.275886
     18          1           0       -3.558227   -1.311074   -1.339093
     19          1           0       -1.870597   -1.844552   -1.116866
     20          6           0        2.089085   -0.618003   -0.651008
     21          8           0        3.070021   -1.273735   -0.367861
     22          1           0        1.289939   -1.040416   -1.306052
 ---------------------------------------------------------------------

 SCF Done:  E(RM062X) =  -462.369190149     A.U. after   17 cycles

 The electronic state is 1-A.
 Alpha  occ. eigenvalues --  -19.67076 -19.59669 -10.61835 -10.60947 -10.60209
 Alpha  occ. eigenvalues --  -10.56695 -10.56441 -10.55539 -10.55480 -10.54084
 Alpha  occ. eigenvalues --   -1.20727  -1.14394  -0.93515  -0.87939  -0.85785
 Alpha  occ. eigenvalues --   -0.79216  -0.73450  -0.72092  -0.64334  -0.63041
 Alpha  occ. eigenvalues --   -0.60489  -0.57526  -0.56376  -0.53524  -0.53237
 Alpha  occ. eigenvalues --   -0.50567  -0.49209  -0.48259  -0.47235  -0.46897
 Alpha  occ. eigenvalues --   -0.46045  -0.44033  -0.43795  -0.41062  -0.38234
 Alpha  occ. eigenvalues --   -0.32265  -0.31315  -0.26317
 Alpha virt. eigenvalues --   -0.02810   0.01391   0.05737   0.06233   0.07719
 Alpha virt. eigenvalues --    0.08393   0.10356   0.10741   0.11384   0.12494
 Alpha virt. eigenvalues --    0.12797   0.13310   0.14576   0.15595   0.16479

 Mulliken charges:
               1
     1  C   -0.368381
     2  C   -0.446383
     3  C   -0.324905
     4  C   -0.148612
     5  H    0.189560
     6  H    0.173072
     7  H    0.173536
     8  C    0.342450
     9  C   -0.181745
    10  H    0.173906
    11  H    0.182818
    12  H    0.168251
    13  H    0.196371
    14  H    0.155404
    15  O   -0.273539
    16  C   -0.303016
    17  H    0.156208
    18  H    0.156648
    19  H    0.151128
    20  C    0.077594
    21  O   -0.323564
    22  H    0.073199
 Sum of Mulliken charges =  -0.00000

 Dipole moment (field-independent basis, Debye):
    X=             -3.7801    Y=              1.2594    Z=              0.3180  Tot=              3.9971
 Quadrupole moment (field-independent basis, Debye-Ang):
   XX=            -74.6966   YY=            -57.5423   ZZ=            -60.0585
   XY=             11.1871   XZ=              4.5642   YZ=              0.4640

 Normal termination of Gaussian 16 at Tue Jun 21 11:24:55 2022.
