 Gaussian 16, Revision C.01,
 Gaussian 16:  AS64L-G16RevC.01  3-Jul-2019

 ----------------
 # M062X/def2tzvp
 ----------------

 ------------------------------------------
 DATS_14_endo_i_TZVPcreated by GaussianPrep
 ------------------------------------------
 Symbolic Z-matrix:
 Charge =  0 Multiplicity = 1

                         Standard orientation:
 ---------------------------------------------------------------------
 Center     Atomic      Atomic             Coordinates (Angstroms)
 Number     Number       Type             X           Y           Z
 ---------------------------------------------------------------------
      1          6           0       -1.464415   -0.568069   -1.326353
      2          6           0        0.093334   -1.727641   -0.633314
      3          6           0       -0.661802   -0.697890    1.961129
      4          6           0       -2.105435    0.149406   -0.326537
      5          1           0       -0.793518   -0.006127   -1.970248
      6          1           0       -1.973191   -1.409247   -1.789571
      7          1           0       -3.022283   -0.192977    0.141608
      8          6           0        0.872608   -0.818663    0.063303
      9          6           0        0.503101   -0.353587    1.370921
     10          1           0        0.480154   -2.078938   -1.584489
     11          1           0       -0.948452   -0.255096    2.909377
     12          1           0        1.114683    0.412547    1.834752
     13          1           0       -0.510817   -2.432057   -0.076729
     14          1           0       -1.309017   -1.476100    1.578107
     15          8           0        1.916719   -0.307165   -0.610363
     16          6           0        2.508600    0.900663   -0.152804
     17          1           0        3.066130    0.736877    0.776283
     18          1           0        3.205472    1.198064   -0.936099
     19          1           0        1.740240    1.666946   -0.015622
     20          6           0       -1.528032    1.407502    0.064869
     21          8           0       -0.449631    1.816589   -0.364307
     22          1           0       -2.093868    2.010391    0.802692
 ---------------------------------------------------------------------

 SCF Done:  E(RM062X) =  -462.378002978     A.U. after   17 cycles

 The electronic state is 1-A.
 Alpha  occ. eigenvalues --  -19.66596 -19.58906 -10.62154 -10.59643 -10.58261
 Alpha  occ. eigenvalues --  -10.56013 -10.55687 -10.55350 -10.55080 -10.52495
 Alpha  occ. eigenvalues --   -1.20320  -1.13114  -0.92699  -0.87087  -0.85055
 Alpha  occ. eigenvalues --   -0.78449  -0.73057  -0.72263  -0.62687  -0.61082
 Alpha  occ. eigenvalues --   -0.59246  -0.57769  -0.55762  -0.55609  -0.50357
 Alpha  occ. eigenvalues --   -0.50118  -0.48487  -0.47872  -0.46488  -0.46382
 Alpha  occ. eigenvalues --   -0.44723  -0.43422  -0.42271  -0.39821  -0.36306
 Alpha  occ. eigenvalues --   -0.33382  -0.31111  -0.25004
 Alpha virt. eigenvalues --   -0.03408   0.01682   0.06882   0.08042   0.08921
 Alpha virt. eigenvalues --    0.10123   0.11238   0.11603   0.12559   0.12808
 Alpha virt. eigenvalues --    0.13766   0.14619   0.14986   0.16353   0.16773

 Mulliken charges:
               1
     1  C   -0.286518
     2  C   -0.460829
     3  C   -0.336535
     4  C   -0.229343
     5  H    0.200771
     6  H    0.164606
     7  H    0.157378
     8  C    0.360174
     9  C   -0.138187
    10  H    0.178468
    11  H    0.154161
    12  H    0.165744
    13  H    0.194284
    14  H    0.141931
    15  O   -0.261212
    16  C   -0.298053
    17  H    0.142770
    18  H    0.147719
    19  H    0.187048
    20  C    0.129733
    21  O   -0.407814
    22  H    0.093705
 Sum of Mulliken charges =  -0.00000

 Dipole moment (field-independent basis, Debye):
    X=             -0.2201    Y=             -1.9358    Z=              1.3359  Tot=              2.3623
 Quadrupole moment (field-independent basis, Debye-Ang):
   XX=            -56.7469   YY=            -63.7587   ZZ=            -58.7867
   XY=              5.3389   XZ=             -0.9345   YZ=              3.9100

 Normal termination of Gaussian 16 at Tue Jun 21 11:25:03 2022.
