 Gaussian 16, Revision C.01,
 Gaussian 16:  AS64L-G16RevC.01  3-Jul-2019

 ----------------
 # M062X/def2tzvp
 ----------------

 -------------------------------------------
 DATS_13_endo_ii_TZVPcreated by GaussianPrep
 -------------------------------------------
 Symbolic Z-matrix:
 Charge =  0 Multiplicity = 1

                         Standard orientation:
 ---------------------------------------------------------------------
 Center     Atomic      Atomic             Coordinates (Angstroms)
 Number     Number       Type             X           Y           Z
 ---------------------------------------------------------------------
      1          6           0       -2.324050    0.191466   -0.077619
      2          6           0       -1.539927   -1.683066   -0.183860
      3          6           0        0.428355   -0.380076    1.412398
      4          6           0       -1.499250    1.014764    0.680831
      5          1           0       -2.305293    0.352203   -1.150495
      6          1           0       -3.276765   -0.123549    0.338552
      7          1           0       -1.705387    1.237318    1.722774
      8          6           0       -0.235956   -1.519068   -0.621214
      9          6           0        0.739738   -0.874380    0.167668
     10          1           0       -2.248984   -2.161249   -0.853637
     11          1           0        1.118996    0.230256    1.981923
     12          1           0       -1.735756   -1.867674    0.867861
     13          1           0       -0.382782   -0.821161    1.972439
     14          6           0       -0.458056    1.770504   -0.005272
     15          8           0       -0.165743    1.599537   -1.176922
     16          1           0        0.091309    2.512135    0.612167
     17          8           0        1.893129   -0.607680   -0.499562
     18          6           0        2.800760    0.283150    0.103604
     19          1           0        3.642731    0.369510   -0.582755
     20          1           0        2.344986    1.271142    0.242749
     21          1           0        3.155629   -0.097036    1.070153
     22          1           0        0.012549   -1.656511   -1.669078
 ---------------------------------------------------------------------

 SCF Done:  E(RM062X) =  -462.371948158     A.U. after   16 cycles

 The electronic state is 1-A.
 Alpha  occ. eigenvalues --  -19.65205 -19.59981 -10.60919 -10.60351 -10.58562
 Alpha  occ. eigenvalues --  -10.56321 -10.55458 -10.55106 -10.54680 -10.54679
 Alpha  occ. eigenvalues --   -1.19174  -1.14504  -0.92825  -0.87399  -0.83243
 Alpha  occ. eigenvalues --   -0.80508  -0.73834  -0.70575  -0.63134  -0.60630
 Alpha  occ. eigenvalues --   -0.59395  -0.58180  -0.55847  -0.55112  -0.51659
 Alpha  occ. eigenvalues --   -0.50301  -0.48336  -0.47538  -0.47003  -0.46452
 Alpha  occ. eigenvalues --   -0.44236  -0.42811  -0.42089  -0.40452  -0.38446
 Alpha  occ. eigenvalues --   -0.31868  -0.29163  -0.27390
 Alpha virt. eigenvalues --   -0.03345   0.02866   0.06445   0.07311   0.08345
 Alpha virt. eigenvalues --    0.09442   0.10590   0.11737   0.12302   0.12748
 Alpha virt. eigenvalues --    0.13545   0.14501   0.14955   0.15974   0.16525

 Mulliken charges:
               1
     1  C   -0.330661
     2  C   -0.395337
     3  C   -0.454156
     4  C   -0.118425
     5  H    0.199780
     6  H    0.166419
     7  H    0.163260
     8  C   -0.075434
     9  C    0.289921
    10  H    0.164241
    11  H    0.182157
    12  H    0.188011
    13  H    0.153075
    14  C    0.043616
    15  O   -0.333321
    16  H    0.107941
    17  O   -0.272772
    18  C   -0.283655
    19  H    0.152840
    20  H    0.146365
    21  H    0.145229
    22  H    0.160906
 Sum of Mulliken charges =  -0.00000

 Dipole moment (field-independent basis, Debye):
    X=             -0.8051    Y=             -0.8036    Z=              2.9987  Tot=              3.2072
 Quadrupole moment (field-independent basis, Debye-Ang):
   XX=            -53.6092   YY=            -63.9772   ZZ=            -61.5349
   XY=              5.1735   XZ=              1.0621   YZ=              5.0202

 Normal termination of Gaussian 16 at Tue Jun 21 11:23:55 2022.
