 Gaussian 16, Revision C.01,
 Gaussian 16:  AS64L-G16RevC.01  3-Jul-2019

 ----------------
 # M062X/def2tzvp
 ----------------

 ------------------------------------------
 DATS_14_exo_iv_TZVPcreated by GaussianPrep
 ------------------------------------------
 Symbolic Z-matrix:
 Charge =  0 Multiplicity = 1

                         Standard orientation:
 ---------------------------------------------------------------------
 Center     Atomic      Atomic             Coordinates (Angstroms)
 Number     Number       Type             X           Y           Z
 ---------------------------------------------------------------------
      1          6           0       -0.550114   -1.462630   -0.280255
      2          6           0        0.924316   -0.643239    0.976302
      3          6           0       -0.799432    1.532811    0.375473
      4          6           0       -1.521912   -0.528551   -0.626264
      5          1           0        0.153542   -1.799091   -1.034087
      6          1           0       -0.808327   -2.216096    0.461924
      7          1           0       -1.504371   -0.024268   -1.585608
      8          6           0        1.371535    0.457279    0.257259
      9          6           0        0.497136    1.523978   -0.052766
     10          1           0        1.585169   -1.480232    1.172328
     11          1           0       -1.509892    2.258919   -0.006455
     12          1           0        0.824066    2.202470   -0.835828
     13          1           0        0.190830   -0.466432    1.752045
     14          1           0       -1.100105    1.034154    1.289354
     15          8           0        2.537886    0.483114   -0.438258
     16          6           0        3.462554   -0.558275   -0.211973
     17          1           0        3.074543   -1.521942   -0.563440
     18          1           0        4.354252   -0.301154   -0.783151
     19          1           0        3.716180   -0.638663    0.851718
     20          6           0       -2.779975   -0.486953    0.114674
     21          8           0       -3.766151    0.147509   -0.197025
     22          1           0       -2.774411   -1.099175    1.048765
 ---------------------------------------------------------------------

 SCF Done:  E(RM062X) =  -462.369142144     A.U. after   17 cycles

 The electronic state is 1-A.
 Alpha  occ. eigenvalues --  -19.67260 -19.60148 -10.61818 -10.61120 -10.60352
 Alpha  occ. eigenvalues --  -10.56609 -10.56382 -10.55987 -10.54692 -10.54032
 Alpha  occ. eigenvalues --   -1.20980  -1.14764  -0.93539  -0.88105  -0.83847
 Alpha  occ. eigenvalues --   -0.82074  -0.72502  -0.71549  -0.64515  -0.63224
 Alpha  occ. eigenvalues --   -0.60211  -0.57823  -0.56604  -0.53676  -0.53234
 Alpha  occ. eigenvalues --   -0.51643  -0.48828  -0.48418  -0.46891  -0.46459
 Alpha  occ. eigenvalues --   -0.44899  -0.44506  -0.43961  -0.41666  -0.38668
 Alpha  occ. eigenvalues --   -0.31828  -0.31463  -0.26549
 Alpha virt. eigenvalues --   -0.02347   0.00994   0.05251   0.06700   0.07865
 Alpha virt. eigenvalues --    0.08919   0.09511   0.10613   0.11840   0.12746
 Alpha virt. eigenvalues --    0.13266   0.13677   0.14731   0.15293   0.16205

 Mulliken charges:
               1
     1  C   -0.342867
     2  C   -0.489118
     3  C   -0.335205
     4  C   -0.146750
     5  H    0.167507
     6  H    0.183871
     7  H    0.174732
     8  C    0.348333
     9  C   -0.139483
    10  H    0.181258
    11  H    0.176075
    12  H    0.153240
    13  H    0.183278
    14  H    0.167047
    15  O   -0.273078
    16  C   -0.295488
    17  H    0.144678
    18  H    0.156662
    19  H    0.156978
    20  C    0.066474
    21  O   -0.318624
    22  H    0.080481
 Sum of Mulliken charges =  -0.00000

 Dipole moment (field-independent basis, Debye):
    X=              4.9789    Y=             -1.9721    Z=              0.9872  Tot=              5.4455
 Quadrupole moment (field-independent basis, Debye-Ang):
   XX=            -74.7665   YY=            -58.8119   ZZ=            -60.3662
   XY=             -2.7548   XZ=             -3.0002   YZ=             -2.0251

 Normal termination of Gaussian 16 at Tue Jun 21 11:26:00 2022.
