 Gaussian 16, Revision C.01,
 Gaussian 16:  AS64L-G16RevC.01  3-Jul-2019

 ----------------
 # M062X/def2tzvp
 ----------------

 ------------------------------------------
 DATS_14_exo_ii_TZVPcreated by GaussianPrep
 ------------------------------------------
 Symbolic Z-matrix:
 Charge =  0 Multiplicity = 1

                         Standard orientation:
 ---------------------------------------------------------------------
 Center     Atomic      Atomic             Coordinates (Angstroms)
 Number     Number       Type             X           Y           Z
 ---------------------------------------------------------------------
      1          6           0        0.654719   -1.219530    0.756811
      2          6           0       -0.530045   -0.669520   -0.758717
      3          6           0        0.715460    1.857766   -0.239837
      4          6           0        1.614890   -0.248376    1.045171
      5          1           0       -0.089304   -1.458374    1.511647
      6          1           0        0.998247   -2.065619    0.166366
      7          1           0        1.568728    0.354823    1.943970
      8          6           0       -1.243486    0.418868   -0.267372
      9          6           0       -0.596492    1.644818    0.040171
     10          1           0       -1.055430   -1.586852   -1.001663
     11          1           0        1.211317    2.755636    0.116057
     12          1           0       -1.157058    2.344049    0.654569
     13          1           0        0.330986   -0.475700   -1.391452
     14          1           0        1.250991    1.281209   -0.983867
     15          8           0       -2.514081    0.345092    0.194949
     16          6           0       -3.234399   -0.848195   -0.032763
     17          1           0       -2.782283   -1.693587    0.499024
     18          1           0       -4.237984   -0.673201    0.353601
     19          1           0       -3.285988   -1.080578   -1.102666
     20          6           0        2.774297   -0.155623    0.187132
     21          8           0        2.853190   -0.703705   -0.906919
     22          1           0        3.605244    0.485849    0.546595
 ---------------------------------------------------------------------

 SCF Done:  E(RM062X) =  -462.373436313     A.U. after   16 cycles

 The electronic state is 1-A.
 Alpha  occ. eigenvalues --  -19.67667 -19.59245 -10.62202 -10.60465 -10.60104
 Alpha  occ. eigenvalues --  -10.56164 -10.56058 -10.55657 -10.54921 -10.52834
 Alpha  occ. eigenvalues --   -1.21385  -1.13601  -0.93373  -0.87336  -0.83868
 Alpha  occ. eigenvalues --   -0.82033  -0.73206  -0.71434  -0.63732  -0.61535
 Alpha  occ. eigenvalues --   -0.59479  -0.58471  -0.56716  -0.56167  -0.51921
 Alpha  occ. eigenvalues --   -0.50055  -0.48950  -0.48275  -0.46745  -0.45617
 Alpha  occ. eigenvalues --   -0.45148  -0.43732  -0.42875  -0.41537  -0.38353
 Alpha  occ. eigenvalues --   -0.32660  -0.31190  -0.25321
 Alpha virt. eigenvalues --   -0.03349   0.01551   0.05817   0.08363   0.08860
 Alpha virt. eigenvalues --    0.09247   0.10930   0.11161   0.11843   0.12835
 Alpha virt. eigenvalues --    0.13481   0.13920   0.14614   0.15822   0.16100

 Mulliken charges:
               1
     1  C   -0.267854
     2  C   -0.503529
     3  C   -0.362397
     4  C   -0.183383
     5  H    0.160721
     6  H    0.195795
     7  H    0.157989
     8  C    0.336817
     9  C   -0.113587
    10  H    0.181703
    11  H    0.150817
    12  H    0.151602
    13  H    0.221368
    14  H    0.190549
    15  O   -0.268505
    16  C   -0.295539
    17  H    0.147675
    18  H    0.157255
    19  H    0.159921
    20  C    0.064051
    21  O   -0.377969
    22  H    0.096499
 Sum of Mulliken charges =  -0.00000

 Dipole moment (field-independent basis, Debye):
    X=             -3.6527    Y=              0.0896    Z=              1.5861  Tot=              3.9832
 Quadrupole moment (field-independent basis, Debye-Ang):
   XX=            -64.1411   YY=            -58.0699   ZZ=            -63.7655
   XY=              9.9305   XZ=              5.4466   YZ=              0.4939

 Normal termination of Gaussian 16 at Tue Jun 21 11:24:59 2022.
