 Gaussian 16, Revision C.01,
 Gaussian 16:  AS64L-G16RevC.01  3-Jul-2019

 ----------------
 # M062X/def2tzvp
 ----------------

 -------------------------------------------
 DATS_14_endo_ii_TZVPcreated by GaussianPrep
 -------------------------------------------
 Symbolic Z-matrix:
 Charge =  0 Multiplicity = 1

                         Standard orientation:
 ---------------------------------------------------------------------
 Center     Atomic      Atomic             Coordinates (Angstroms)
 Number     Number       Type             X           Y           Z
 ---------------------------------------------------------------------
      1          6           0       -0.892267   -1.197547    1.224135
      2          6           0        0.539899    0.151552    1.457718
      3          6           0       -1.270803    1.942485    0.091217
      4          6           0       -1.932399   -0.759725    0.400445
      5          1           0       -0.224527   -1.926373    0.775528
      6          1           0       -1.091801   -1.353571    2.281513
      7          1           0       -2.883796   -0.409916    0.784870
      8          6           0        0.839562    0.722757    0.217597
      9          6           0       -0.060126    1.631199   -0.420681
     10          1           0        1.300652   -0.439746    1.956554
     11          1           0       -1.976553    2.534195   -0.482423
     12          1           0        0.204994    1.920022   -1.433294
     13          1           0       -0.031637    0.779796    2.130228
     14          1           0       -1.553307    1.715907    1.111349
     15          8           0        1.911474    0.412518   -0.529557
     16          6           0        2.672754   -0.718780   -0.159097
     17          1           0        2.034907   -1.607039   -0.122071
     18          1           0        3.424132   -0.841909   -0.938084
     19          1           0        3.171291   -0.568521    0.806058
     20          6           0       -1.673717   -0.790886   -1.010963
     21          8           0       -0.562334   -1.058664   -1.468103
     22          1           0       -2.504908   -0.520009   -1.691167
 ---------------------------------------------------------------------

 SCF Done:  E(RM062X) =  -462.373668087     A.U. after   17 cycles

 The electronic state is 1-A.
 Alpha  occ. eigenvalues --  -19.66780 -19.58373 -10.62482 -10.59342 -10.58984
 Alpha  occ. eigenvalues --  -10.56063 -10.55569 -10.55540 -10.54742 -10.52211
 Alpha  occ. eigenvalues --   -1.20814  -1.12550  -0.92825  -0.87144  -0.83501
 Alpha  occ. eigenvalues --   -0.81488  -0.72784  -0.70837  -0.63338  -0.61273
 Alpha  occ. eigenvalues --   -0.58586  -0.58025  -0.55991  -0.55676  -0.51382
 Alpha  occ. eigenvalues --   -0.50020  -0.48304  -0.47454  -0.46931  -0.45982
 Alpha  occ. eigenvalues --   -0.43782  -0.42819  -0.42061  -0.40941  -0.37256
 Alpha  occ. eigenvalues --   -0.33143  -0.30571  -0.24493
 Alpha virt. eigenvalues --   -0.03610   0.02828   0.06267   0.07990   0.08973
 Alpha virt. eigenvalues --    0.09991   0.10825   0.11412   0.12001   0.12347
 Alpha virt. eigenvalues --    0.14020   0.14244   0.14991   0.15924   0.16441

 Mulliken charges:
               1
     1  C   -0.263609
     2  C   -0.517584
     3  C   -0.326643
     4  C   -0.215812
     5  H    0.187667
     6  H    0.159945
     7  H    0.158222
     8  C    0.361028
     9  C   -0.117353
    10  H    0.181461
    11  H    0.153761
    12  H    0.162107
    13  H    0.196173
    14  H    0.142279
    15  O   -0.248401
    16  C   -0.280405
    17  H    0.161202
    18  H    0.156712
    19  H    0.142093
    20  C    0.101497
    21  O   -0.387964
    22  H    0.093625
 Sum of Mulliken charges =  -0.00000

 Dipole moment (field-independent basis, Debye):
    X=              0.4393    Y=              0.7656    Z=              3.0161  Tot=              3.1426
 Quadrupole moment (field-independent basis, Debye-Ang):
   XX=            -54.2822   YY=            -62.8504   ZZ=            -61.4169
   XY=             -6.3470   XZ=              0.4938   YZ=             -3.9404

 Normal termination of Gaussian 16 at Tue Jun 21 11:25:02 2022.
