 Gaussian 16, Revision C.01,
 Gaussian 16:  AS64L-G16RevC.01  3-Jul-2019

 ----------------
 # M062X/def2tzvp
 ----------------

 -----------------------------------------
 DATS_13_exo_i_TZVPcreated by GaussianPrep
 -----------------------------------------
 Symbolic Z-matrix:
 Charge =  0 Multiplicity = 1

                         Standard orientation:
 ---------------------------------------------------------------------
 Center     Atomic      Atomic             Coordinates (Angstroms)
 Number     Number       Type             X           Y           Z
 ---------------------------------------------------------------------
      1          6           0       -1.303938    1.128337    1.009288
      2          6           0       -0.219940    1.642456   -0.736804
      3          6           0        0.129669   -1.180381   -0.705184
      4          6           0       -1.406518   -0.249262    1.048597
      5          1           0       -0.692104    1.647131    1.738688
      6          1           0       -2.148685    1.681289    0.608350
      7          1           0       -0.847223   -0.847279    1.758677
      8          6           0        1.021130    1.074371   -0.537530
      9          6           0        1.179881   -0.331808   -0.465705
     10          1           0       -0.299740    2.725889   -0.742598
     11          1           0        0.264344   -2.242544   -0.528572
     12          1           0       -0.999016    1.128395   -1.293358
     13          1           0       -0.684516   -0.880813   -1.349053
     14          6           0       -2.474354   -0.893776    0.283519
     15          8           0       -3.119375   -0.324243   -0.579418
     16          1           0       -2.657923   -1.964723    0.504944
     17          8           0        2.324247   -0.917067    0.001728
     18          6           0        3.353873   -0.086213    0.486074
     19          1           0        4.141189   -0.755561    0.833321
     20          1           0        3.757336    0.560846   -0.302352
     21          1           0        3.013504    0.536470    1.323049
     22          1           0        1.835046    1.719041   -0.223108
 ---------------------------------------------------------------------

 SCF Done:  E(RM062X) =  -462.367190176     A.U. after   15 cycles

 The electronic state is 1-A.
 Alpha  occ. eigenvalues --  -19.65868 -19.60841 -10.61632 -10.60630 -10.59589
 Alpha  occ. eigenvalues --  -10.56310 -10.55580 -10.55331 -10.54645 -10.54565
 Alpha  occ. eigenvalues --   -1.19548  -1.15374  -0.92865  -0.87647  -0.84905
 Alpha  occ. eigenvalues --   -0.78347  -0.74117  -0.72355  -0.62826  -0.61372
 Alpha  occ. eigenvalues --   -0.60140  -0.57998  -0.56230  -0.55555  -0.51607
 Alpha  occ. eigenvalues --   -0.50329  -0.48722  -0.48323  -0.47389  -0.46262
 Alpha  occ. eigenvalues --   -0.45168  -0.43619  -0.42937  -0.40484  -0.38875
 Alpha  occ. eigenvalues --   -0.32442  -0.28588  -0.28232
 Alpha virt. eigenvalues --   -0.03539   0.01041   0.05871   0.08156   0.08564
 Alpha virt. eigenvalues --    0.09506   0.10419   0.11234   0.12769   0.12990
 Alpha virt. eigenvalues --    0.13587   0.13997   0.14362   0.15258   0.16580

 Mulliken charges:
               1
     1  C   -0.323375
     2  C   -0.398086
     3  C   -0.480900
     4  C   -0.155974
     5  H    0.161363
     6  H    0.202207
     7  H    0.172648
     8  C   -0.148502
     9  C    0.360020
    10  H    0.161966
    11  H    0.162987
    12  H    0.207958
    13  H    0.214002
    14  C    0.080158
    15  O   -0.343377
    16  H    0.105612
    17  O   -0.285507
    18  C   -0.301121
    19  H    0.153625
    20  H    0.151262
    21  H    0.145509
    22  H    0.157524
 Sum of Mulliken charges =  -0.00000

 Dipole moment (field-independent basis, Debye):
    X=              3.3025    Y=              1.2055    Z=              1.9473  Tot=              4.0189
 Quadrupole moment (field-independent basis, Debye-Ang):
   XX=            -66.9909   YY=            -56.6269   ZZ=            -62.9138
   XY=              3.0927   XZ=             -1.1118   YZ=             -0.6692

 Normal termination of Gaussian 16 at Tue Jun 21 11:23:45 2022.
