 Gaussian 16, Revision C.01,
 Gaussian 16:  AS64L-G16RevC.01  3-Jul-2019

 ----------------
 # M062X/def2tzvp
 ----------------

 ------------------------------------------
 DATS_13_exo_iv_TZVPcreated by GaussianPrep
 ------------------------------------------
 Symbolic Z-matrix:
 Charge =  0 Multiplicity = 1

                         Standard orientation:
 ---------------------------------------------------------------------
 Center     Atomic      Atomic             Coordinates (Angstroms)
 Number     Number       Type             X           Y           Z
 ---------------------------------------------------------------------
      1          6           0       -1.490007    1.352767    0.789711
      2          6           0       -0.049489    2.268877   -0.488414
      3          6           0        0.285560   -0.518796   -0.868519
      4          6           0       -1.398362   -0.029297    0.683097
      5          1           0       -1.126310    1.845273    1.683311
      6          1           0       -2.321310    1.852859    0.296212
      7          1           0       -0.870406   -0.616183    1.427331
      8          6           0        1.130946    1.636316   -0.156594
      9          6           0        1.290201    0.244476   -0.316221
     10          1           0       -0.160608    3.326002   -0.264902
     11          1           0        0.303192   -1.602052   -0.871271
     12          1           0       -0.636133    1.928461   -1.334963
     13          1           0       -0.360412   -0.066611   -1.608945
     14          6           0       -2.369778   -0.758239   -0.142152
     15          8           0       -2.547198   -1.956258   -0.123550
     16          1           0       -2.958173   -0.107039   -0.830680
     17          8           0        2.369797   -0.270009    0.339237
     18          6           0        2.566580   -1.664118    0.258633
     19          1           0        3.518718   -1.866303    0.749042
     20          1           0        1.769739   -2.211983    0.776414
     21          1           0        2.610373   -1.998522   -0.785109
     22          1           0        1.856637    2.134320    0.480818
 ---------------------------------------------------------------------

 SCF Done:  E(RM062X) =  -462.367470878     A.U. after   16 cycles

 The electronic state is 1-A.
 Alpha  occ. eigenvalues --  -19.66094 -19.61173 -10.62013 -10.60715 -10.59307
 Alpha  occ. eigenvalues --  -10.56530 -10.55962 -10.55468 -10.55311 -10.54929
 Alpha  occ. eigenvalues --   -1.19812  -1.15823  -0.93324  -0.88287  -0.83521
 Alpha  occ. eigenvalues --   -0.81056  -0.73097  -0.71080  -0.64876  -0.62746
 Alpha  occ. eigenvalues --   -0.59851  -0.57165  -0.55612  -0.54156  -0.53795
 Alpha  occ. eigenvalues --   -0.51471  -0.48279  -0.48047  -0.47474  -0.47100
 Alpha  occ. eigenvalues --   -0.44499  -0.44163  -0.43711  -0.41219  -0.38873
 Alpha  occ. eigenvalues --   -0.32567  -0.29424  -0.27978
 Alpha virt. eigenvalues --   -0.03086   0.01877   0.06267   0.06499   0.07156
 Alpha virt. eigenvalues --    0.09020   0.09768   0.11692   0.11730   0.13273
 Alpha virt. eigenvalues --    0.13338   0.13557   0.14159   0.15591   0.16014

 Mulliken charges:
               1
     1  C   -0.394037
     2  C   -0.362947
     3  C   -0.481151
     4  C   -0.099587
     5  H    0.174214
     6  H    0.184552
     7  H    0.172555
     8  C   -0.107689
     9  C    0.312674
    10  H    0.161444
    11  H    0.199661
    12  H    0.174305
    13  H    0.176044
    14  C    0.083426
    15  O   -0.308293
    16  H    0.087830
    17  O   -0.286528
    18  C   -0.295726
    19  H    0.152159
    20  H    0.151541
    21  H    0.153967
    22  H    0.151584
 Sum of Mulliken charges =  -0.00000

 Dipole moment (field-independent basis, Debye):
    X=              1.5401    Y=              2.3737    Z=             -0.0371  Tot=              2.8298
 Quadrupole moment (field-independent basis, Debye-Ang):
   XX=            -66.5968   YY=            -61.3089   ZZ=            -61.0667
   XY=            -13.0257   XZ=              2.0407   YZ=              0.2589

 Normal termination of Gaussian 16 at Tue Jun 21 11:24:48 2022.
