 Gaussian 16, Revision C.01,
 Gaussian 16:  AS64L-G16RevC.01  3-Jul-2019

 ----------------
 # M062X/def2tzvp
 ----------------

 -------------------------------------------
 DATS_14_endo_iv_TZVPcreated by GaussianPrep
 -------------------------------------------
 Symbolic Z-matrix:
 Charge =  0 Multiplicity = 1

                         Standard orientation:
 ---------------------------------------------------------------------
 Center     Atomic      Atomic             Coordinates (Angstroms)
 Number     Number       Type             X           Y           Z
 ---------------------------------------------------------------------
      1          6           0        0.521065    1.631278    0.166662
      2          6           0       -1.137703    0.711963    1.049613
      3          6           0        0.885432   -1.283811    1.077449
      4          6           0        1.678502    0.875748    0.317115
      5          1           0        0.088621    1.710379   -0.828580
      6          1           0        0.383034    2.512066    0.786281
      7          1           0        2.329519    1.020965    1.175040
      8          6           0       -1.264551   -0.458843    0.313113
      9          6           0       -0.242193   -1.434285    0.320764
     10          1           0       -1.905550    1.476126    1.002448
     11          1           0        1.730731   -1.951348    0.944471
     12          1           0       -0.282185   -2.182822   -0.465595
     13          1           0       -0.632769    0.650170    2.004923
     14          1           0        0.889511   -0.701837    1.990713
     15          8           0       -2.187112   -0.637669   -0.667691
     16          6           0       -3.232779    0.304253   -0.768531
     17          1           0       -2.856245    1.290222   -1.066638
     18          1           0       -3.904891   -0.070818   -1.539889
     19          1           0       -3.775026    0.397585    0.179937
     20          6           0        2.256239    0.165255   -0.823654
     21          8           0        3.386895   -0.271296   -0.884430
     22          1           0        1.552908    0.051679   -1.681322
 ---------------------------------------------------------------------

 SCF Done:  E(RM062X) =  -462.370217915     A.U. after   17 cycles

 The electronic state is 1-A.
 Alpha  occ. eigenvalues --  -19.67275 -19.59501 -10.61822 -10.60758 -10.60357
 Alpha  occ. eigenvalues --  -10.56600 -10.56473 -10.56107 -10.54766 -10.54140
 Alpha  occ. eigenvalues --   -1.20990  -1.14227  -0.93616  -0.88013  -0.83952
 Alpha  occ. eigenvalues --   -0.82105  -0.72392  -0.71587  -0.64388  -0.63331
 Alpha  occ. eigenvalues --   -0.60179  -0.57778  -0.56599  -0.53488  -0.53094
 Alpha  occ. eigenvalues --   -0.51628  -0.48683  -0.48034  -0.47182  -0.47131
 Alpha  occ. eigenvalues --   -0.44723  -0.44111  -0.43867  -0.41658  -0.38491
 Alpha  occ. eigenvalues --   -0.32062  -0.31059  -0.26429
 Alpha virt. eigenvalues --   -0.02152   0.01475   0.05172   0.07066   0.07570
 Alpha virt. eigenvalues --    0.08616   0.09744   0.10281   0.11660   0.12305
 Alpha virt. eigenvalues --    0.12954   0.13920   0.14093   0.15696   0.16001

 Mulliken charges:
               1
     1  C   -0.336340
     2  C   -0.484959
     3  C   -0.317351
     4  C   -0.157050
     5  H    0.181160
     6  H    0.171977
     7  H    0.174337
     8  C    0.331009
     9  C   -0.166475
    10  H    0.180826
    11  H    0.183457
    12  H    0.161143
    13  H    0.190479
    14  H    0.159251
    15  O   -0.271008
    16  C   -0.295454
    17  H    0.145592
    18  H    0.157022
    19  H    0.156261
    20  C    0.074151
    21  O   -0.324760
    22  H    0.086731
 Sum of Mulliken charges =  -0.00000

 Dipole moment (field-independent basis, Debye):
    X=             -5.0567    Y=              1.9733    Z=              1.5575  Tot=              5.6471
 Quadrupole moment (field-independent basis, Debye-Ang):
   XX=            -72.6239   YY=            -59.7154   ZZ=            -59.7691
   XY=             -2.7783   XZ=              7.1440   YZ=              0.4698

 Normal termination of Gaussian 16 at Tue Jun 21 11:25:01 2022.
