 Gaussian 16, Revision C.01,
 Gaussian 16:  AS64L-G16RevC.01  3-Jul-2019

 ----------------
 # M062X/def2tzvp
 ----------------

 -----------------------------------------
 DATS_14_exo_i_TZVPcreated by GaussianPrep
 -----------------------------------------
 Symbolic Z-matrix:
 Charge =  0 Multiplicity = 1

                         Standard orientation:
 ---------------------------------------------------------------------
 Center     Atomic      Atomic             Coordinates (Angstroms)
 Number     Number       Type             X           Y           Z
 ---------------------------------------------------------------------
      1          6           0        0.953839   -1.270069    0.758124
      2          6           0       -0.248610   -1.002944   -0.913206
      3          6           0        0.326401    1.748529   -0.337817
      4          6           0        1.614509   -0.099908    1.096694
      5          1           0        0.204599   -1.681339    1.427376
      6          1           0        1.513896   -1.996538    0.175278
      7          1           0        1.334597    0.488755    1.962683
      8          6           0       -1.220918   -0.126166   -0.473179
      9          6           0       -0.911128    1.226481   -0.138504
     10          1           0       -0.563708   -2.017603   -1.136051
     11          1           0        0.563144    2.743452    0.026394
     12          1           0       -1.636041    1.807834    0.421770
     13          1           0        0.611688   -0.636620   -1.462356
     14          1           0        1.047155    1.301254   -1.010696
     15          8           0       -2.425002   -0.684091   -0.182068
     16          6           0       -3.422744    0.113785    0.419443
     17          1           0       -3.666242    0.985064   -0.199239
     18          1           0       -4.302191   -0.524084    0.504588
     19          1           0       -3.122931    0.450183    1.418971
     20          6           0        2.785056    0.284398    0.332859
     21          8           0        3.095556   -0.225878   -0.735817
     22          1           0        3.393168    1.114764    0.747878
 ---------------------------------------------------------------------

 SCF Done:  E(RM062X) =  -462.371153203     A.U. after   17 cycles

 The electronic state is 1-A.
 Alpha  occ. eigenvalues --  -19.67174 -19.59541 -10.61924 -10.60385 -10.60328
 Alpha  occ. eigenvalues --  -10.56225 -10.55905 -10.55604 -10.54914 -10.52963
 Alpha  occ. eigenvalues --   -1.20843  -1.13927  -0.93151  -0.87157  -0.85652
 Alpha  occ. eigenvalues --   -0.79093  -0.73353  -0.72745  -0.63239  -0.61512
 Alpha  occ. eigenvalues --   -0.59831  -0.58096  -0.56439  -0.56225  -0.50883
 Alpha  occ. eigenvalues --   -0.50200  -0.49167  -0.48366  -0.47197  -0.45738
 Alpha  occ. eigenvalues --   -0.45459  -0.43518  -0.43186  -0.40915  -0.38002
 Alpha  occ. eigenvalues --   -0.32612  -0.31388  -0.25401
 Alpha virt. eigenvalues --   -0.03426   0.00937   0.06047   0.08004   0.08902
 Alpha virt. eigenvalues --    0.09238   0.10830   0.11658   0.12171   0.12982
 Alpha virt. eigenvalues --    0.13546   0.13917   0.14862   0.15182   0.15778

 Mulliken charges:
               1
     1  C   -0.310284
     2  C   -0.472732
     3  C   -0.377892
     4  C   -0.162863
     5  H    0.170077
     6  H    0.197957
     7  H    0.153275
     8  C    0.361834
     9  C   -0.132426
    10  H    0.172977
    11  H    0.151567
    12  H    0.154479
    13  H    0.228542
    14  H    0.188743
    15  O   -0.271485
    16  C   -0.306085
    17  H    0.156932
    18  H    0.157850
    19  H    0.149608
    20  C    0.061762
    21  O   -0.368265
    22  H    0.096430
 Sum of Mulliken charges =  -0.00000

 Dipole moment (field-independent basis, Debye):
    X=             -4.1065    Y=              1.5064    Z=              2.2265  Tot=              4.9082
 Quadrupole moment (field-independent basis, Debye-Ang):
   XX=            -65.4854   YY=            -57.5822   ZZ=            -63.1029
   XY=              0.8039   XZ=              1.8348   YZ=              1.3529

 Normal termination of Gaussian 16 at Tue Jun 21 11:25:55 2022.
