 Gaussian 16, Revision C.01,
 Gaussian 16:  AS64L-G16RevC.01  3-Jul-2019

 ----------------
 # M062X/def2tzvp
 ----------------

 -------------------------------------------
 DATS_14_exo_iii_TZVPcreated by GaussianPrep
 -------------------------------------------
 Symbolic Z-matrix:
 Charge =  0 Multiplicity = 1

                         Standard orientation:
 ---------------------------------------------------------------------
 Center     Atomic      Atomic             Coordinates (Angstroms)
 Number     Number       Type             X           Y           Z
 ---------------------------------------------------------------------
      1          6           0        0.812507    1.490551   -0.535187
      2          6           0       -0.688053    1.221747    0.982020
      3          6           0        0.500346   -1.354575    0.724203
      4          6           0        1.554528    0.340578   -0.742816
      5          1           0        0.087138    1.810566   -1.274961
      6          1           0        1.259606    2.296474    0.043839
      7          1           0        1.340707   -0.336180   -1.562318
      8          6           0       -1.399987    0.140900    0.499560
      9          6           0       -0.792672   -1.136092    0.351506
     10          1           0       -1.189717    2.183685    1.012368
     11          1           0        1.009316   -2.276276    0.461563
     12          1           0       -1.285604   -1.885185   -0.259064
     13          1           0        0.083525    1.062257    1.722528
     14          1           0        0.990233   -0.754694    1.481016
     15          8           0       -2.610277    0.437065   -0.046583
     16          6           0       -3.313052   -0.575740   -0.734758
     17          1           0       -3.509870   -1.437928   -0.087244
     18          1           0       -4.260212   -0.128715   -1.035919
     19          1           0       -2.770711   -0.908983   -1.627584
     20          6           0        2.832378    0.163540   -0.058167
     21          8           0        3.631955   -0.725048   -0.268020
     22          1           0        3.036193    0.933396    0.724431
 ---------------------------------------------------------------------

 SCF Done:  E(RM062X) =  -462.367779830     A.U. after   17 cycles

 The electronic state is 1-A.
 Alpha  occ. eigenvalues --  -19.67054 -19.60172 -10.61815 -10.61117 -10.60240
 Alpha  occ. eigenvalues --  -10.56565 -10.56423 -10.55444 -10.55312 -10.53937
 Alpha  occ. eigenvalues --   -1.20715  -1.14770  -0.93401  -0.87988  -0.85693
 Alpha  occ. eigenvalues --   -0.79146  -0.73277  -0.72256  -0.64320  -0.62972
 Alpha  occ. eigenvalues --   -0.60540  -0.57520  -0.56394  -0.53669  -0.53289
 Alpha  occ. eigenvalues --   -0.50514  -0.49208  -0.48510  -0.46933  -0.46618
 Alpha  occ. eigenvalues --   -0.45883  -0.44187  -0.44050  -0.41076  -0.38415
 Alpha  occ. eigenvalues --   -0.31912  -0.31634  -0.26380
 Alpha virt. eigenvalues --   -0.02842   0.00771   0.05923   0.06772   0.07127
 Alpha virt. eigenvalues --    0.09116   0.09988   0.10778   0.11692   0.13020
 Alpha virt. eigenvalues --    0.13184   0.13900   0.15050   0.15410   0.15456

 Mulliken charges:
               1
     1  C   -0.381658
     2  C   -0.456817
     3  C   -0.354368
     4  C   -0.126390
     5  H    0.178132
     6  H    0.184713
     7  H    0.167530
     8  C    0.371171
     9  C   -0.149031
    10  H    0.172946
    11  H    0.175477
    12  H    0.157679
    13  H    0.191056
    14  H    0.164904
    15  O   -0.276474
    16  C   -0.304045
    17  H    0.156365
    18  H    0.156682
    19  H    0.150366
    20  C    0.059666
    21  O   -0.319975
    22  H    0.082070
 Sum of Mulliken charges =  -0.00000

 Dipole moment (field-independent basis, Debye):
    X=             -4.4006    Y=              0.7489    Z=              0.0199  Tot=              4.4639
 Quadrupole moment (field-independent basis, Debye-Ang):
   XX=            -74.3744   YY=            -58.4700   ZZ=            -60.7072
   XY=              8.9016   XZ=              6.9007   YZ=              1.8862

 Normal termination of Gaussian 16 at Tue Jun 21 11:25:01 2022.
