 Gaussian 16, Revision C.01,
 Gaussian 16:  AS64L-G16RevC.01  3-Jul-2019

 ----------------
 # M062X/def2tzvp
 ----------------

 -------------------------------------------
 DATS_13_endo_iv_TZVPcreated by GaussianPrep
 -------------------------------------------
 Symbolic Z-matrix:
 Charge =  0 Multiplicity = 1

                         Standard orientation:
 ---------------------------------------------------------------------
 Center     Atomic      Atomic             Coordinates (Angstroms)
 Number     Number       Type             X           Y           Z
 ---------------------------------------------------------------------
      1          6           0       -2.226258    0.398227   -0.369848
      2          6           0       -1.842722   -1.643016    0.059106
      3          6           0        0.282917   -0.225700    1.273293
      4          6           0       -1.293201    1.197469    0.278895
      5          1           0       -2.145034    0.279533   -1.446380
      6          1           0       -3.237572    0.340653    0.020090
      7          1           0       -1.513654    1.657068    1.238130
      8          6           0       -0.536273   -1.819467   -0.352997
      9          6           0        0.520656   -1.086944    0.223499
     10          1           0       -2.634616   -2.157352   -0.477956
     11          1           0        1.034658    0.460009    1.644739
     12          1           0       -2.070644   -1.441950    1.100513
     13          1           0       -0.530730   -0.442446    1.950905
     14          6           0       -0.176568    1.776505   -0.479370
     15          8           0        0.524552    2.697536   -0.115488
     16          1           0        0.003365    1.276293   -1.458992
     17          8           0        1.675077   -1.108275   -0.500524
     18          1           0       -0.325902   -2.301798   -1.303854
     19          6           0        2.733209   -0.286766   -0.049381
     20          1           0        2.464306    0.775349   -0.102802
     21          1           0        3.015642   -0.537845    0.980573
     22          1           0        3.572596   -0.483441   -0.716056
 ---------------------------------------------------------------------

 SCF Done:  E(RM062X) =  -462.369871793     A.U. after   16 cycles

 The electronic state is 1-A.
 Alpha  occ. eigenvalues --  -19.65910 -19.60835 -10.61848 -10.60725 -10.58772
 Alpha  occ. eigenvalues --  -10.56623 -10.55978 -10.55561 -10.55412 -10.54921
 Alpha  occ. eigenvalues --   -1.19591  -1.15490  -0.93391  -0.88196  -0.83542
 Alpha  occ. eigenvalues --   -0.80844  -0.73284  -0.70718  -0.65126  -0.62314
 Alpha  occ. eigenvalues --   -0.59882  -0.56933  -0.55528  -0.53955  -0.53791
 Alpha  occ. eigenvalues --   -0.51179  -0.48539  -0.48105  -0.47137  -0.46865
 Alpha  occ. eigenvalues --   -0.44740  -0.44044  -0.43603  -0.41111  -0.38492
 Alpha  occ. eigenvalues --   -0.32481  -0.29265  -0.28072
 Alpha virt. eigenvalues --   -0.03096   0.02402   0.05538   0.07021   0.08342
 Alpha virt. eigenvalues --    0.08869   0.10059   0.11376   0.11793   0.12660
 Alpha virt. eigenvalues --    0.13133   0.13987   0.15109   0.15878   0.16496

 Mulliken charges:
               1
     1  C   -0.390313
     2  C   -0.373474
     3  C   -0.437581
     4  C   -0.071725
     5  H    0.183046
     6  H    0.174735
     7  H    0.172560
     8  C   -0.107387
     9  C    0.258090
    10  H    0.162273
    11  H    0.206309
    12  H    0.182534
    13  H    0.165603
    14  C    0.031938
    15  O   -0.317859
    16  H    0.120142
    17  O   -0.285418
    18  H    0.154190
    19  C   -0.297483
    20  H    0.169904
    21  H    0.149648
    22  H    0.150269
 Sum of Mulliken charges =  -0.00000

 Dipole moment (field-independent basis, Debye):
    X=             -1.6441    Y=             -2.4341    Z=              0.4753  Tot=              2.9756
 Quadrupole moment (field-independent basis, Debye-Ang):
   XX=            -53.0595   YY=            -75.0224   ZZ=            -58.4517
   XY=              0.1773   XZ=              0.4724   YZ=              1.0441

 Normal termination of Gaussian 16 at Tue Jun 21 11:23:50 2022.
