 Q-Chem 5.4, Q-Chem, Inc., Pleasanton, CA (2021)
 Q-Chem 5.4.1 for Intel X86 EM64T Linux

User input:
--------------------------------------------------------------
$molecule
0 1
C  -1.464415  -0.568069  -1.326353
C  0.093334  -1.727641  -0.633314
C  -0.661802  -0.69789  1.961129
C  -2.105435  0.149406  -0.326537
H  -0.793518  -0.006127  -1.970248
H  -1.973191  -1.409247  -1.789571
H  -3.022283  -0.192977  0.141608
C  0.872608  -0.818663  0.063303
C  0.503101  -0.353587  1.370921
H  0.480154  -2.078938  -1.584489
H  -0.948452  -0.255096  2.909377
H  1.114683  0.412547  1.834752
H  -0.510818  -2.432057  -0.076729
H  -1.309017  -1.4761  1.578107
O  1.916719  -0.307165  -0.610363
C  2.5086  0.900663  -0.152804
H  3.06613  0.736876  0.776283
H  3.205472  1.198063  -0.936099
H  1.74024  1.666946  -0.015622
C  -1.528032  1.407502  0.064869
O  -0.449631  1.816589  -0.364307
H  -2.093868  2.010391  0.802692
$end

$rem
METHOD wB97X-V
BASIS def2-TZVP
XC_GRID 000099000590
MEM_TOTAL          8000
MEM_STATIC         4000
$end

--------------------------------------------------------------

             Standard Nuclear Orientation (Angstroms)
    I     Atom           X                Y                Z
 ----------------------------------------------------------------
    1      C       1.4644147903     0.5680695656    -1.3263526410
    2      C      -0.0933344122     1.7276411308    -0.6333133686
    3      C       0.6618017270     0.6978896034     1.9611293815
    4      C       2.1054348975    -0.1494055792    -0.3265368136
    5      H       0.7935178923     0.0061276157    -1.9702477911
    6      H       1.9731906556     1.4092477673    -1.7895704227
    7      H       3.0222828344     0.1929774561     0.1416082842
    8      C      -0.8726082691     0.8186628251     0.0633033926
    9      C      -0.5031012080     0.3535865575     1.3709212801
   10      H      -0.4801544588     2.0789383058    -1.5844882850
   11      H       0.9484517890     0.2550954124     2.9093772736
   12      H      -1.1146830859    -0.4125476615     1.8347520794
   13      H       0.5108174631     2.4320570915    -0.0767281835
   14      H       1.3090166019     1.4760998080     1.5781075857
   15      O      -1.9167191752     0.3071648204    -0.6103627495
   16      C      -2.5085999792    -0.9006633937    -0.1528040612
   17      H      -3.0661300183    -0.7368767209     0.7762829730
   18      H      -3.2054719196    -1.1980633129    -0.9360991450
   19      H      -1.7402398529    -1.6669462999    -0.0156222445
   20      C       1.5280321027    -1.4075017742     0.0648688621
   21      O       0.4496311765    -1.8165888463    -0.3643072545
   22      H       2.0938681941    -2.0103908656     0.8026917174
 ----------------------------------------------------------------

    8    -462.4338869013      9.92e-06  Convergence criterion met
 Total energy in the final basis set =     -462.4338869013

                    Orbital Energies (a.u.)
 --------------------------------------------------------------

 Alpha MOs
 -- Occupied --
-19.2536 -19.1702 -10.3530 -10.3252 -10.3141 -10.2921 -10.2894 -10.2849
-10.2795 -10.2524  -1.2118  -1.1370  -0.9606  -0.9048  -0.8856  -0.8207
 -0.7680  -0.7603  -0.6651  -0.6511  -0.6313  -0.6177  -0.5963  -0.5932
 -0.5464  -0.5362  -0.5270  -0.5174  -0.5061  -0.5036  -0.4877  -0.4738
 -0.4605  -0.4355  -0.4002  -0.3736  -0.3400  -0.2854

          Ground-State Mulliken Net Atomic Charges

     Atom                 Charge (a.u.)
  ----------------------------------------
      1 C                    -0.186415
      2 C                    -0.342609
      3 C                    -0.285238
      4 C                    -0.247769
      5 H                     0.166675
      6 H                     0.147004
      7 H                     0.129770
      8 C                     0.276264
      9 C                    -0.157148
     10 H                     0.151976
     11 H                     0.141229
     12 H                     0.137857
     13 H                     0.157915
     14 H                     0.138812
     15 O                    -0.222460
     16 C                    -0.232739
     17 H                     0.118983
     18 H                     0.133325
     19 H                     0.164173
     20 C                     0.145031
     21 O                    -0.398763
     22 H                     0.064126
  ----------------------------------------
  Sum of atomic charges =     0.000000

                    Cartesian Multipole Moments
 -----------------------------------------------------------------
    Charge (ESU x 10^10)
                 0.0000
    Dipole Moment (Debye)
         X       0.1060      Y       1.9353      Z       1.3560
       Tot       2.3655
    Quadrupole Moments (Debye-Ang)
        XX     -56.9479     XY       5.3305     YY     -63.9477
        XZ       0.9147     YZ      -3.7594     ZZ     -58.7566

 Total job time:  40.74s(wall), 643.95s(cpu)
        *  Thank you very much for using Q-Chem.  Have a nice day.  *
