                         Program Version 5.0.3 -  RELEASE  -
|  1> # DATS_14_endo_i_DLPNO
|  2> %maxcore 4000
|  3> %pal nprocs 16 end
|  4> ! pal16 DLPNO-CCSD(T) def2-tzvpp def2-tzvpp/C
|  5>
|  6> * xyz 0 1
|  7>  C  -1.46441500  -0.56806900  -1.32635300
|  8>  C   0.09333400  -1.72764100  -0.63331400
|  9>  C  -0.66180200  -0.69789000   1.96112900
| 10>  C  -2.10543500   0.14940600  -0.32653700
| 11>  H  -0.79351800  -0.00612700  -1.97024800
| 12>  H  -1.97319100  -1.40924700  -1.78957100
| 13>  H  -3.02228300  -0.19297700   0.14160800
| 14>  C   0.87260800  -0.81866300   0.06330300
| 15>  C   0.50310100  -0.35358700   1.37092100
| 16>  H   0.48015400  -2.07893800  -1.58448900
| 17>  H  -0.94845200  -0.25509600   2.90937700
| 18>  H   1.11468300   0.41254700   1.83475200
| 19>  H  -0.51081800  -2.43205700  -0.07672900
| 20>  H  -1.30901700  -1.47610000   1.57810700
| 21>  O   1.91671900  -0.30716500  -0.61036300
| 22>  C   2.50860000   0.90066300  -0.15280400
| 23>  H   3.06613000   0.73687600   0.77628300
| 24>  H   3.20547200   1.19806300  -0.93609900
| 25>  H   1.74024000   1.66694600  -0.01562200
| 26>  C  -1.52803200   1.40750200   0.06486900
| 27>  O  -0.44963100   1.81658900  -0.36430700
| 28>  H  -2.09386800   2.01039100   0.80269200
| 29> **                         ****END OF INPUT****

CARTESIAN COORDINATES (ANGSTROEM)
---------------------------------
  C     -1.464415   -0.568069   -1.326353
  C      0.093334   -1.727641   -0.633314
  C     -0.661802   -0.697890    1.961129
  C     -2.105435    0.149406   -0.326537
  H     -0.793518   -0.006127   -1.970248
  H     -1.973191   -1.409247   -1.789571
  H     -3.022283   -0.192977    0.141608
  C      0.872608   -0.818663    0.063303
  C      0.503101   -0.353587    1.370921
  H      0.480154   -2.078938   -1.584489
  H     -0.948452   -0.255096    2.909377
  H      1.114683    0.412547    1.834752
  H     -0.510818   -2.432057   -0.076729
  H     -1.309017   -1.476100    1.578107
  O      1.916719   -0.307165   -0.610363
  C      2.508600    0.900663   -0.152804
  H      3.066130    0.736876    0.776283
  H      3.205472    1.198063   -0.936099
  H      1.740240    1.666946   -0.015622
  C     -1.528032    1.407502    0.064869
  O     -0.449631    1.816589   -0.364307
  H     -2.093868    2.010391    0.802692

 Total Charge           Charge          ....    0
 Multiplicity           Mult            ....    1
 Number of Electrons    NEL             ....   76
 Basis Dimension        Dim             ....  478

ORBITAL ENERGIES
----------------

  NO   OCC          E(Eh)            E(eV)
   0   2.0000     -20.591643      -560.3271
   1   2.0000     -20.503957      -557.9410
   2   2.0000     -11.323920      -308.1395
   3   2.0000     -11.295974      -307.3791
   4   2.0000     -11.272657      -306.7446
   5   2.0000     -11.259151      -306.3771
   6   2.0000     -11.256228      -306.2975
   7   2.0000     -11.243729      -305.9574
   8   2.0000     -11.231874      -305.6348
   9   2.0000     -11.202016      -304.8224
  10   2.0000      -1.422282       -38.7023
  11   2.0000      -1.342816       -36.5399
  12   2.0000      -1.108852       -30.1734
  13   2.0000      -1.045040       -28.4370
  14   2.0000      -1.014461       -27.6049
  15   2.0000      -0.933325       -25.3971
  16   2.0000      -0.875862       -23.8334
  17   2.0000      -0.864827       -23.5331
  18   2.0000      -0.745933       -20.2979
  19   2.0000      -0.724620       -19.7179
  20   2.0000      -0.704293       -19.1648
  21   2.0000      -0.685240       -18.6463
  22   2.0000      -0.663144       -18.0451
  23   2.0000      -0.658505       -17.9188
  24   2.0000      -0.605667       -16.4810
  25   2.0000      -0.603732       -16.4284
  26   2.0000      -0.582122       -15.8403
  27   2.0000      -0.569849       -15.5064
  28   2.0000      -0.560914       -15.2632
  29   2.0000      -0.546679       -14.8759
  30   2.0000      -0.531091       -14.4517
  31   2.0000      -0.520546       -14.1648
  32   2.0000      -0.504703       -13.7337
  33   2.0000      -0.485910       -13.2223
  34   2.0000      -0.425240       -11.5714
  35   2.0000      -0.396486       -10.7889
  36   2.0000      -0.370272       -10.0756
  37   2.0000      -0.275300        -7.4913
  38   0.0000       0.064891         1.7658
  39   0.0000       0.121586         3.3085
  40   0.0000       0.144189         3.9236
  41   0.0000       0.154950         4.2164
  42   0.0000       0.162888         4.4324

MULLIKEN ATOMIC CHARGES
-----------------------
   0 C :   -0.054635
   1 C :   -0.233579
   2 C :   -0.146163
   3 C :   -0.273322
   4 H :    0.129913
   5 H :    0.115451
   6 H :    0.082737
   7 C :    0.363738
   8 C :   -0.135712
   9 H :    0.114715
  10 H :    0.099410
  11 H :    0.085425
  12 H :    0.101775
  13 H :    0.082328
  14 O :   -0.370356
  15 C :   -0.023370
  16 H :    0.061416
  17 H :    0.085473
  18 H :    0.115798
  19 C :    0.330224
  20 O :   -0.572189
  21 H :    0.040924
Sum of atomic charges:    0.0000000

LOEWDIN ATOMIC CHARGES
----------------------
   0 C :    0.089761
   1 C :    0.034955
   2 C :    0.093358
   3 C :   -0.120828
   4 H :    0.024397
   5 H :    0.014036
   6 H :   -0.009125
   7 C :   -0.162789
   8 C :   -0.038459
   9 H :    0.010464
  10 H :    0.005594
  11 H :    0.021607
  12 H :    0.003944
  13 H :    0.001888
  14 O :    0.254744
  15 C :   -0.019201
  16 H :   -0.004930
  17 H :    0.005922
  18 H :    0.005285
  19 C :   -0.197813
  20 O :   -0.015000
  21 H :    0.002189

  Mayer bond orders larger than 0.100000
B(  0-C ,  1-C ) :   0.3744 B(  0-C ,  3-C ) :   1.4320 B(  0-C ,  4-H ) :   0.9883
B(  0-C ,  5-H ) :   1.0026 B(  1-C ,  7-C ) :   1.4240 B(  1-C ,  9-H ) :   0.9973
B(  1-C , 12-H ) :   1.0215 B(  2-C ,  3-C ) :   0.1092 B(  2-C ,  8-C ) :   1.7285
B(  2-C , 10-H ) :   1.0037 B(  2-C , 13-H ) :   1.0190 B(  3-C ,  6-H ) :   1.0134
B(  3-C , 19-C ) :   1.1667 B(  7-C ,  8-C ) :   1.1476 B(  7-C , 14-O ) :   1.1102
B(  8-C , 11-H ) :   1.0040 B( 14-O , 15-C ) :   0.8611 B( 15-C , 16-H ) :   1.0033
B( 15-C , 17-H ) :   1.0042 B( 15-C , 18-H ) :   0.9831 B( 19-C , 20-O ) :   1.7718
B( 19-C , 21-H ) :   1.0507

E(0)                                       ...   -459.684471203
E(0)                                       ...   -459.684471203
E(CORR)(strong-pairs)                      ...     -1.848894577
E(CORR)(weak-pairs)                        ...     -0.010505891
E(CORR)(corrected)                         ...     -1.859400468
E(TOT)                                     ...   -461.543871671
E(CCSD(T))                                 ...   -461.628898548
FINAL SINGLE POINT ENERGY      -461.628898548266

DIPOLE MOMENT
-------------
                                X             Y             Z
Electronic contribution:      0.88957       1.00764      -1.02197
Nuclear contribution   :     -1.03993      -1.83472       1.68482
                        -----------------------------------------
Total Dipole Moment    :     -0.15036      -0.82708       0.66285
                        -----------------------------------------
Magnitude (a.u.)       :      1.07053
Magnitude (Debye)      :      2.72108

Rotational constants in cm-1:     0.056811     0.038433     0.035482
Rotational constants in MHz :  1703.165159  1152.184516  1063.716395

                             ****ORCA TERMINATED NORMALLY****
TOTAL RUN TIME: 0 days 0 hours 6 minutes 6 seconds 380 msec
