                         Program Version 5.0.3 -  RELEASE  -
|  1> # DATS_14_endo_iii_DLPNO
|  2> %maxcore 4000
|  3> %pal nprocs 16 end
|  4> ! pal16 DLPNO-CCSD(T) def2-tzvpp def2-tzvpp/C
|  5>
|  6> * xyz 0 1
|  7>  C   0.84811400   1.51012100  -0.84650000
|  8>  C  -0.93268200   1.67789500   0.32694700
|  9>  C   0.58663000  -0.32526100   1.66739700
| 10>  C   1.82040000   0.75286600  -0.21829100
| 11>  H   0.33142600   1.08999300  -1.70630900
| 12>  H   0.93459800   2.59213300  -0.85330100
| 13>  H   2.55829100   1.21221500   0.43375200
| 14>  C  -1.35392900   0.36308500   0.37926800
| 15>  C  -0.58438100  -0.63286000   1.03862400
| 16>  H  -1.53496000   2.37557300  -0.24616300
| 17>  H   1.23905600  -1.11328400   2.02918300
| 18>  H  -0.81666700  -1.67884800   0.87007500
| 19>  H  -0.37850700   2.09488500   1.15680200
| 20>  H   0.80724700   0.67162300   2.02615700
| 21>  O  -2.39467700   0.05300700  -0.43987800
| 22>  C  -2.70849800  -1.30699700  -0.65679700
| 23>  H  -2.99278200  -1.80750000   0.27588600
| 24>  H  -3.55822700  -1.31107400  -1.33909300
| 25>  H  -1.87059700  -1.84455200  -1.11686600
| 26>  C   2.08908500  -0.61800300  -0.65100800
| 27>  O   3.07002100  -1.27373500  -0.36786100
| 28>  H   1.28993900  -1.04041600  -1.30605200
| 29> **                         ****END OF INPUT****

CARTESIAN COORDINATES (ANGSTROEM)
---------------------------------
  C      0.848114    1.510121   -0.846500
  C     -0.932682    1.677895    0.326947
  C      0.586630   -0.325261    1.667397
  C      1.820400    0.752866   -0.218291
  H      0.331426    1.089993   -1.706309
  H      0.934598    2.592133   -0.853301
  H      2.558291    1.212215    0.433752
  C     -1.353929    0.363085    0.379268
  C     -0.584381   -0.632860    1.038624
  H     -1.534960    2.375573   -0.246163
  H      1.239056   -1.113284    2.029183
  H     -0.816667   -1.678848    0.870075
  H     -0.378507    2.094885    1.156802
  H      0.807247    0.671623    2.026157
  O     -2.394677    0.053007   -0.439878
  C     -2.708498   -1.306997   -0.656797
  H     -2.992782   -1.807500    0.275886
  H     -3.558227   -1.311074   -1.339093
  H     -1.870597   -1.844552   -1.116866
  C      2.089085   -0.618003   -0.651008
  O      3.070021   -1.273735   -0.367861
  H      1.289939   -1.040416   -1.306052

 Total Charge           Charge          ....    0
 Multiplicity           Mult            ....    1
 Number of Electrons    NEL             ....   76
 Basis Dimension        Dim             ....  478

ORBITAL ENERGIES
----------------

  NO   OCC          E(Eh)            E(eV)
   0   2.0000     -20.597589      -560.4889
   1   2.0000     -20.517031      -558.2968
   2   2.0000     -11.316282      -307.9317
   3   2.0000     -11.310222      -307.7668
   4   2.0000     -11.295078      -307.3547
   5   2.0000     -11.266319      -306.5721
   6   2.0000     -11.262693      -306.4735
   7   2.0000     -11.243508      -305.9514
   8   2.0000     -11.238984      -305.8283
   9   2.0000     -11.224044      -305.4218
  10   2.0000      -1.426356       -38.8131
  11   2.0000      -1.358725       -36.9728
  12   2.0000      -1.117281       -30.4027
  13   2.0000      -1.055099       -28.7107
  14   2.0000      -1.021758       -27.8034
  15   2.0000      -0.943048       -25.6617
  16   2.0000      -0.878288       -23.8994
  17   2.0000      -0.864869       -23.5343
  18   2.0000      -0.767006       -20.8713
  19   2.0000      -0.744067       -20.2471
  20   2.0000      -0.713815       -19.4239
  21   2.0000      -0.683189       -18.5905
  22   2.0000      -0.668420       -18.1886
  23   2.0000      -0.642419       -17.4811
  24   2.0000      -0.638866       -17.3844
  25   2.0000      -0.607033       -16.5182
  26   2.0000      -0.590190       -16.0599
  27   2.0000      -0.576766       -15.6946
  28   2.0000      -0.570070       -15.5124
  29   2.0000      -0.555240       -15.1088
  30   2.0000      -0.541868       -14.7450
  31   2.0000      -0.529345       -14.4042
  32   2.0000      -0.516437       -14.0530
  33   2.0000      -0.500066       -13.6075
  34   2.0000      -0.451067       -12.2742
  35   2.0000      -0.400763       -10.9053
  36   2.0000      -0.354966        -9.6591
  37   2.0000      -0.290534        -7.9058
  38   0.0000       0.072027         1.9600
  39   0.0000       0.118990         3.2379
  40   0.0000       0.128567         3.4985
  41   0.0000       0.141947         3.8626
  42   0.0000       0.159389         4.3372

MULLIKEN ATOMIC CHARGES
-----------------------
   0 C :   -0.152440
   1 C :   -0.198938
   2 C :   -0.097259
   3 C :   -0.144172
   4 H :    0.107285
   5 H :    0.120385
   6 H :    0.105095
   7 C :    0.273934
   8 C :   -0.206559
   9 H :    0.109888
  10 H :    0.131045
  11 H :    0.096996
  12 H :    0.105477
  13 H :    0.088489
  14 O :   -0.372628
  15 C :   -0.012832
  16 H :    0.072716
  17 H :    0.093519
  18 H :    0.067033
  19 C :    0.278696
  20 O :   -0.479934
  21 H :    0.014205
Sum of atomic charges:    0.0000000

LOEWDIN ATOMIC CHARGES
----------------------
   0 C :    0.064188
   1 C :    0.039768
   2 C :    0.121342
   3 C :   -0.080519
   4 H :    0.012422
   5 H :    0.013378
   6 H :    0.005691
   7 C :   -0.197152
   8 C :   -0.064784
   9 H :    0.006538
  10 H :    0.016895
  11 H :    0.015063
  12 H :    0.004312
  13 H :    0.006385
  14 O :    0.232985
  15 C :   -0.035258
  16 H :    0.002496
  17 H :    0.008986
  18 H :    0.000463
  19 C :   -0.197495
  20 O :    0.021778
  21 H :    0.002519

  Mayer bond orders larger than 0.100000
B(  0-C ,  1-C ) :   0.3250 B(  0-C ,  3-C ) :   1.4803 B(  0-C ,  4-H ) :   1.0143
B(  0-C ,  5-H ) :   0.9958 B(  1-C ,  7-C ) :   1.4771 B(  1-C ,  9-H ) :   0.9963
B(  1-C , 12-H ) :   1.0241 B(  2-C ,  3-C ) :   0.1797 B(  2-C ,  8-C ) :   1.6240
B(  2-C , 10-H ) :   0.9941 B(  2-C , 13-H ) :   1.0225 B(  3-C ,  6-H ) :   0.9914
B(  3-C , 19-C ) :   1.0175 B(  3-C , 21-H ) :  -0.1123 B(  7-C ,  8-C ) :   1.2081
B(  7-C , 14-O ) :   1.0633 B(  8-C , 11-H ) :   1.0137 B( 14-O , 15-C ) :   0.8916
B( 15-C , 16-H ) :   1.0002 B( 15-C , 17-H ) :   1.0033 B( 15-C , 18-H ) :   0.9962
B( 19-C , 20-O ) :   1.9459 B( 19-C , 21-H ) :   1.0683

E(0)                                       ...   -459.678865573
E(0)                                       ...   -459.678865573
E(CORR)(strong-pairs)                      ...     -1.849172242
E(CORR)(weak-pairs)                        ...     -0.009357040
E(CORR)(corrected)                         ...     -1.858529282
E(TOT)                                     ...   -461.537394855
E(CCSD(T))                                 ...   -461.621990510
FINAL SINGLE POINT ENERGY      -461.621990509618

DIPOLE MOMENT
-------------
                                X             Y             Z
Electronic contribution:      2.46442      -0.70921      -0.07761
Nuclear contribution   :     -4.05299       1.24374       0.21518
                        -----------------------------------------
Total Dipole Moment    :     -1.58857       0.53453       0.13757
                        -----------------------------------------
Magnitude (a.u.)       :      1.68173
Magnitude (Debye)      :      4.27462

Rotational constants in cm-1:     0.066631     0.027824     0.025061
Rotational constants in MHz :  1997.555729   834.130509   751.323753

                             ****ORCA TERMINATED NORMALLY****
TOTAL RUN TIME: 0 days 0 hours 6 minutes 4 seconds 643 msec
