                         Program Version 5.0.3 -  RELEASE  -
|  1> # DATS_14_exo_v_DLPNO
|  2> %maxcore 4000
|  3> %pal nprocs 16 end
|  4> ! pal16 DLPNO-CCSD(T) def2-tzvpp def2-tzvpp/C
|  5>
|  6> * xyz 0 1
|  7>  C  -0.55011400  -1.46263000  -0.28025500
|  8>  C   0.92431600  -0.64323900   0.97630200
|  9>  C  -0.79943200   1.53281100   0.37547300
| 10>  C  -1.52191200  -0.52855100  -0.62626400
| 11>  H   0.15354200  -1.79909100  -1.03408700
| 12>  H  -0.80832700  -2.21609600   0.46192400
| 13>  H  -1.50437100  -0.02426800  -1.58560800
| 14>  C   1.37153500   0.45727900   0.25725900
| 15>  C   0.49713600   1.52397800  -0.05276600
| 16>  H   1.58516900  -1.48023200   1.17232800
| 17>  H  -1.50989200   2.25891900  -0.00645500
| 18>  H   0.82406600   2.20247000  -0.83582800
| 19>  H   0.19083000  -0.46643200   1.75204500
| 20>  H  -1.10010500   1.03415400   1.28935400
| 21>  O   2.53788600   0.48311400  -0.43825800
| 22>  C   3.46255400  -0.55827500  -0.21197300
| 23>  H   3.07454300  -1.52194200  -0.56344000
| 24>  H   4.35425200  -0.30115400  -0.78315100
| 25>  H   3.71618000  -0.63866300   0.85171800
| 26>  C  -2.77997500  -0.48695300   0.11467400
| 27>  O  -3.76615100   0.14750900  -0.19702500
| 28>  H  -2.77441100  -1.09917500   1.04876500
| 29> **                         ****END OF INPUT****

CARTESIAN COORDINATES (ANGSTROEM)
---------------------------------
  C     -0.550114   -1.462630   -0.280255
  C      0.924316   -0.643239    0.976302
  C     -0.799432    1.532811    0.375473
  C     -1.521912   -0.528551   -0.626264
  H      0.153542   -1.799091   -1.034087
  H     -0.808327   -2.216096    0.461924
  H     -1.504371   -0.024268   -1.585608
  C      1.371535    0.457279    0.257259
  C      0.497136    1.523978   -0.052766
  H      1.585169   -1.480232    1.172328
  H     -1.509892    2.258919   -0.006455
  H      0.824066    2.202470   -0.835828
  H      0.190830   -0.466432    1.752045
  H     -1.100105    1.034154    1.289354
  O      2.537886    0.483114   -0.438258
  C      3.462554   -0.558275   -0.211973
  H      3.074543   -1.521942   -0.563440
  H      4.354252   -0.301154   -0.783151
  H      3.716180   -0.638663    0.851718
  C     -2.779975   -0.486953    0.114674
  O     -3.766151    0.147509   -0.197025
  H     -2.774411   -1.099175    1.048765

 Total Charge           Charge          ....    0
 Multiplicity           Mult            ....    1
 Number of Electrons    NEL             ....   76
 Basis Dimension        Dim             ....  478

ORBITAL ENERGIES
----------------

  NO   OCC          E(Eh)            E(eV)
   0   2.0000     -20.599727      -560.5471
   1   2.0000     -20.522551      -558.4470
   2   2.0000     -11.317227      -307.9574
   3   2.0000     -11.311871      -307.8117
   4   2.0000     -11.295777      -307.3737
   5   2.0000     -11.264547      -306.5239
   6   2.0000     -11.263347      -306.4913
   7   2.0000     -11.245000      -305.9920
   8   2.0000     -11.233370      -305.6755
   9   2.0000     -11.223109      -305.3963
  10   2.0000      -1.429037       -38.8861
  11   2.0000      -1.362672       -37.0802
  12   2.0000      -1.117148       -30.3992
  13   2.0000      -1.055882       -28.7320
  14   2.0000      -1.003699       -27.3120
  15   2.0000      -0.972808       -26.4715
  16   2.0000      -0.869841       -23.6696
  17   2.0000      -0.855689       -23.2845
  18   2.0000      -0.768430       -20.9100
  19   2.0000      -0.748469       -20.3669
  20   2.0000      -0.710376       -19.3303
  21   2.0000      -0.683964       -18.6116
  22   2.0000      -0.670539       -18.2463
  23   2.0000      -0.645620       -17.5682
  24   2.0000      -0.637151       -17.3377
  25   2.0000      -0.617923       -16.8145
  26   2.0000      -0.585357       -15.9284
  27   2.0000      -0.582806       -15.8589
  28   2.0000      -0.560142       -15.2422
  29   2.0000      -0.542914       -14.7735
  30   2.0000      -0.539938       -14.6925
  31   2.0000      -0.534427       -14.5425
  32   2.0000      -0.516448       -14.0533
  33   2.0000      -0.506563       -13.7843
  34   2.0000      -0.456004       -12.4085
  35   2.0000      -0.404231       -10.9997
  36   2.0000      -0.348378        -9.4798
  37   2.0000      -0.292810        -7.9678
  38   0.0000       0.076404         2.0790
  39   0.0000       0.112774         3.0687
  40   0.0000       0.125687         3.4201
  41   0.0000       0.150376         4.0920
  42   0.0000       0.162481         4.4213

MULLIKEN ATOMIC CHARGES
-----------------------
   0 C :   -0.139512
   1 C :   -0.220492
   2 C :   -0.079535
   3 C :   -0.133787
   4 H :    0.103392
   5 H :    0.114633
   6 H :    0.106372
   7 C :    0.299603
   8 C :   -0.210477
   9 H :    0.098228
  10 H :    0.126934
  11 H :    0.097061
  12 H :    0.092360
  13 H :    0.087610
  14 O :   -0.368848
  15 C :   -0.004332
  16 H :    0.061885
  17 H :    0.095043
  18 H :    0.071655
  19 C :    0.249519
  20 O :   -0.471786
  21 H :    0.024475
Sum of atomic charges:    0.0000000

LOEWDIN ATOMIC CHARGES
----------------------
   0 C :    0.059619
   1 C :    0.020385
   2 C :    0.114136
   3 C :   -0.079275
   4 H :    0.007867
   5 H :    0.012432
   6 H :    0.006762
   7 C :   -0.193220
   8 C :   -0.052496
   9 H :   -0.002111
  10 H :    0.016907
  11 H :    0.021632
  12 H :    0.007398
  13 H :    0.008699
  14 O :    0.236681
  15 C :   -0.033503
  16 H :   -0.000424
  17 H :    0.008684
  18 H :    0.002764
  19 C :   -0.196260
  20 O :    0.031373
  21 H :    0.001950

  Mayer bond orders larger than 0.100000
B(  0-C ,  1-C ) :   0.3473 B(  0-C ,  3-C ) :   1.4381 B(  0-C ,  4-H ) :   1.0015
B(  0-C ,  5-H ) :   1.0097 B(  1-C ,  7-C ) :   1.4367 B(  1-C ,  9-H ) :   1.0066
B(  1-C , 12-H ) :   1.0077 B(  2-C ,  3-C ) :   0.2304 B(  2-C ,  8-C ) :   1.6080
B(  2-C , 10-H ) :   0.9952 B(  2-C , 13-H ) :   1.0130 B(  3-C ,  6-H ) :   0.9948
B(  3-C , 19-C ) :   1.0157 B(  3-C , 21-H ) :  -0.1183 B(  7-C ,  8-C ) :   1.2602
B(  7-C , 14-O ) :   1.0546 B(  8-C , 11-H ) :   1.0064 B( 14-O , 15-C ) :   0.8944
B( 15-C , 16-H ) :   0.9955 B( 15-C , 17-H ) :   1.0029 B( 15-C , 18-H ) :   0.9993
B( 19-C , 20-O ) :   1.9419 B( 19-C , 21-H ) :   1.0713

E(0)                                       ...   -459.677315792
E(0)                                       ...   -459.677315792
E(CORR)(strong-pairs)                      ...     -1.850271357
E(CORR)(weak-pairs)                        ...     -0.009617036
E(CORR)(corrected)                         ...     -1.859888394
E(TOT)                                     ...   -461.537204186
E(CCSD(T))                                 ...   -461.622036008
FINAL SINGLE POINT ENERGY      -461.622036008459

DIPOLE MOMENT
-------------
                                X             Y             Z
Electronic contribution:     -4.23504       3.25586      -1.30997
Nuclear contribution   :      6.29464      -4.11513       1.78954
                        -----------------------------------------
Total Dipole Moment    :      2.05960      -0.85927       0.47957
                        -----------------------------------------
Magnitude (a.u.)       :      2.28260
Magnitude (Debye)      :      5.80191

Rotational constants in cm-1:     0.101358     0.022810     0.020294
Rotational constants in MHz :  3038.638658   683.813813   608.410528

                             ****ORCA TERMINATED NORMALLY****
TOTAL RUN TIME: 0 days 0 hours 6 minutes 30 seconds 676 msec
