 Gaussian 16, Revision C.01,
 Gaussian 16:  AS64L-G16RevC.01  3-Jul-2019

 -------------------------------------------------
 # opt=(calcfc,ts,noeigentest) freq 6-31g(d) m062x
 -------------------------------------------------

 -------------------
 Title Card Required
 -------------------
 Symbolic Z-matrix:
 Charge =  0 Multiplicity = 1

 SCF Done:  E(RM062X) =  -462.175013019     A.U. after   16 cycles
 SCF Done:  E(RM062X) =  -462.184314773     A.U. after   16 cycles
 SCF Done:  E(RM062X) =  -462.187201891     A.U. after   15 cycles
 SCF Done:  E(RM062X) =  -462.187424332     A.U. after   15 cycles
 SCF Done:  E(RM062X) =  -462.188464346     A.U. after   14 cycles
 SCF Done:  E(RM062X) =  -462.188446138     A.U. after   15 cycles
 SCF Done:  E(RM062X) =  -462.188661822     A.U. after   14 cycles
 SCF Done:  E(RM062X) =  -462.188633993     A.U. after   14 cycles
 SCF Done:  E(RM062X) =  -462.188683968     A.U. after   12 cycles
 SCF Done:  E(RM062X) =  -462.188652471     A.U. after   12 cycles
 SCF Done:  E(RM062X) =  -462.188659057     A.U. after   13 cycles
 SCF Done:  E(RM062X) =  -462.188693678     A.U. after   13 cycles
 SCF Done:  E(RM062X) =  -462.188693961     A.U. after    9 cycles
 SCF Done:  E(RM062X) =  -462.188694833     A.U. after   10 cycles
 Optimization completed.
    -- Stationary point found.
 Normal termination of Gaussian 16 at Fri Apr 15 21:59:37 2022.

 --------------------------------------------------------------------
 #N Geom=AllCheck Guess=TCheck SCRF=Check GenChk RM062X/6-31G(d) Freq
 --------------------------------------------------------------------

 Structure from the checkpoint file:  "DE09_DP03_TS.chk"
 -------------------
 Title Card Required
 -------------------
 Charge =  0 Multiplicity = 1

                         Standard orientation:
 ---------------------------------------------------------------------
 Center     Atomic      Atomic             Coordinates (Angstroms)
 Number     Number       Type             X           Y           Z
 ---------------------------------------------------------------------
      1          6           0       -1.464415   -0.568069   -1.326353
      2          6           0        0.093334   -1.727641   -0.633314
      3          6           0       -0.661802   -0.697890    1.961129
      4          6           0       -2.105435    0.149406   -0.326537
      5          1           0       -0.793518   -0.006127   -1.970248
      6          1           0       -1.973191   -1.409247   -1.789571
      7          1           0       -3.022283   -0.192977    0.141608
      8          6           0        0.872608   -0.818663    0.063303
      9          6           0        0.503101   -0.353587    1.370921
     10          1           0        0.480154   -2.078938   -1.584489
     11          1           0       -0.948452   -0.255096    2.909377
     12          1           0        1.114683    0.412547    1.834752
     13          1           0       -0.510818   -2.432057   -0.076729
     14          1           0       -1.309017   -1.476100    1.578107
     15          8           0        1.916719   -0.307165   -0.610363
     16          6           0        2.508600    0.900663   -0.152804
     17          1           0        3.066130    0.736876    0.776283
     18          1           0        3.205472    1.198063   -0.936099
     19          1           0        1.740240    1.666946   -0.015622
     20          6           0       -1.528032    1.407502    0.064869
     21          8           0       -0.449631    1.816589   -0.364307
     22          1           0       -2.093868    2.010391    0.802692
 ---------------------------------------------------------------------

 SCF Done:  E(RM062X) =  -462.188694833     A.U. after    1 cycles

 The electronic state is 1-A.
 Alpha  occ. eigenvalues --  -19.67556 -19.59934 -10.62466 -10.60090 -10.58914
 Alpha  occ. eigenvalues --  -10.56320 -10.56211 -10.55860 -10.55432 -10.52881
 Alpha  occ. eigenvalues --   -1.19560  -1.12148  -0.92014  -0.86300  -0.84454
 Alpha  occ. eigenvalues --   -0.77986  -0.72414  -0.71598  -0.62119  -0.60459
 Alpha  occ. eigenvalues --   -0.58615  -0.57005  -0.55029  -0.54844  -0.49755
 Alpha  occ. eigenvalues --   -0.49141  -0.47945  -0.47171  -0.45674  -0.45525
 Alpha  occ. eigenvalues --   -0.44050  -0.42723  -0.41476  -0.39029  -0.35277
 Alpha  occ. eigenvalues --   -0.32435  -0.29858  -0.23875
 Alpha virt. eigenvalues --   -0.01952   0.03642   0.11280   0.14083   0.14516
 Alpha virt. eigenvalues --    0.16168   0.17036   0.18544   0.19193   0.19843
 Alpha virt. eigenvalues --    0.21021   0.22303   0.23281   0.24066   0.24765

 Mulliken charges:
               1
     1  C   -0.347888
     2  C   -0.463031
     3  C   -0.370367
     4  C   -0.207597
     5  H    0.214941
     6  H    0.179410
     7  H    0.149954
     8  C    0.454463
     9  C   -0.145366
    10  H    0.194978
    11  H    0.177839
    12  H    0.175647
    13  H    0.187605
    14  H    0.170965
    15  O   -0.502744
    16  C   -0.267810
    17  H    0.156098
    18  H    0.185646
    19  H    0.220458
    20  C    0.229495
    21  O   -0.500600
    22  H    0.107904
 Sum of Mulliken charges =  -0.00000

 Dipole moment (field-independent basis, Debye):
    X=             -0.1687    Y=             -1.7758    Z=              1.3907  Tot=              2.2618
 Quadrupole moment (field-independent basis, Debye-Ang):
   XX=            -55.5449   YY=            -62.3289   ZZ=            -57.6393
   XY=              5.2083   XZ=             -0.6439   YZ=              3.4099

  Exact polarizability:     113.866       0.326      88.736      -0.845       6.246      92.996
 Approx polarizability:     150.745      -1.190     115.761      -2.879       8.604     121.568

 ******    1 imaginary frequencies (negative Signs) ******

                      1                      2                      3
                      A                      A                      A
 Frequencies --   -373.4153                95.3488               112.8178
 Red. masses --      9.5693                 5.2061                 4.4103
 Frc consts  --      0.7862                 0.0279                 0.0331
 IR Inten    --     84.9484                 2.7569                 5.8729

                      4                      5                      6
                      A                      A                      A
 Frequencies --    142.8532               176.0926               183.5931
 Red. masses --      3.7450                 4.8305                 4.0122
 Frc consts  --      0.0450                 0.0883                 0.0797
 IR Inten    --      3.0738                 2.1085                18.2957

                      7                      8                      9
                      A                      A                      A
 Frequencies --    250.1040               251.6993               295.1989
 Red. masses --      1.8060                 2.5161                 1.8314
 Frc consts  --      0.0666                 0.0939                 0.0940
 IR Inten    --      3.8289                 5.1242                 1.2022

                     10                     11                     12
                      A                      A                      A
 Frequencies --    324.9038               342.8791               398.7513
 Red. masses --      1.8005                 3.1494                 2.7199
 Frc consts  --      0.1120                 0.2182                 0.2548
 IR Inten    --      2.5345                12.0600                 1.9582

                     13                     14                     15
                      A                      A                      A
 Frequencies --    476.4383               485.3562               528.0232
 Red. masses --      2.9082                 2.3040                 1.8838
 Frc consts  --      0.3889                 0.3198                 0.3095
 IR Inten    --     22.6214                19.3975                 1.8901

                     16                     17                     18
                      A                      A                      A
 Frequencies --    572.7871               687.5966               748.0705
 Red. masses --      3.6891                 2.0079                 1.7723
 Frc consts  --      0.7131                 0.5593                 0.5843
 IR Inten    --     20.2894                 6.2722                 7.0274

                     19                     20                     21
                      A                      A                      A
 Frequencies --    760.3181               841.6708               862.6808
 Red. masses --      1.8624                 2.6128                 1.2416
 Frc consts  --      0.6343                 1.0906                 0.5444
 IR Inten    --     10.6727                 2.4336                 2.3134

                     22                     23                     24
                      A                      A                      A
 Frequencies --    910.2540               929.1804               978.2675
 Red. masses --      1.2005                 1.2645                 1.4093
 Frc consts  --      0.5860                 0.6433                 0.7946
 IR Inten    --    103.2524                10.5102                41.4806

                     25                     26                     27
                      A                      A                      A
 Frequencies --    983.0498              1004.5653              1022.1079
 Red. masses --      1.5032                 1.1899                 1.6763
 Frc consts  --      0.8559                 0.7075                 1.0318
 IR Inten    --     11.7892                 5.5556                21.6445

                     28                     29                     30
                      A                      A                      A
 Frequencies --   1035.6050              1084.4198              1108.8560
 Red. masses --      1.7589                 1.4795                 1.2337
 Frc consts  --      1.1114                 1.0251                 0.8937
 IR Inten    --     15.9741                 0.5601                11.9893

                     31                     32                     33
                      A                      A                      A
 Frequencies --   1127.6176              1170.0409              1195.4058
 Red. masses --      1.3325                 3.6617                 1.2635
 Frc consts  --      0.9983                 2.9535                 1.0638
 IR Inten    --      8.0883                69.4243                 2.4403

                     34                     35                     36
                      A                      A                      A
 Frequencies --   1230.8900              1272.7969              1322.8508
 Red. masses --      1.3498                 1.5264                 1.5381
 Frc consts  --      1.2049                 1.4569                 1.5859
 IR Inten    --      1.2593                20.9484                94.4727

                     37                     38                     39
                      A                      A                      A
 Frequencies --   1389.6895              1409.2897              1431.8307
 Red. masses --      1.9010                 1.4120                 1.3086
 Frc consts  --      2.1631                 1.6523                 1.5807
 IR Inten    --    116.3814                28.6537                31.1995

                     40                     41                     42
                      A                      A                      A
 Frequencies --   1456.5391              1491.3317              1519.1641
 Red. masses --      1.4751                 1.2819                 1.6920
 Frc consts  --      1.8438                 1.6797                 2.3007
 IR Inten    --     32.1679                26.2502                79.9509

                     43                     44                     45
                      A                      A                      A
 Frequencies --   1535.8931              1544.7562              1548.6812
 Red. masses --      1.0798                 1.0605                 1.8054
 Frc consts  --      1.5008                 1.4910                 2.5512
 IR Inten    --     14.1277                18.2526                72.5352

                     46                     47                     48
                      A                      A                      A
 Frequencies --   1622.0059              1686.9621              1758.7297
 Red. masses --      3.2852                 3.6293                 6.9936
 Frc consts  --      5.0923                 6.0853                12.7454
 IR Inten    --     72.7266                41.3237               163.0284

                     49                     50                     51
                      A                      A                      A
 Frequencies --   2988.6040              3074.7794              3158.8818
 Red. masses --      1.0849                 1.0357                 1.1031
 Frc consts  --      5.7091                 5.7690                 6.4851
 IR Inten    --    156.4990                61.0956                13.0601

                     52                     53                     54
                      A                      A                      A
 Frequencies --   3179.7202              3204.5235              3212.5918
 Red. masses --      1.0564                 1.1047                 1.0592
 Frc consts  --      6.2930                 6.6839                 6.4410
 IR Inten    --      6.8034                13.6441                 1.3545

                     55                     56                     57
                      A                      A                      A
 Frequencies --   3221.7405              3240.6856              3252.7064
 Red. masses --      1.0604                 1.0933                 1.0914
 Frc consts  --      6.4847                 6.7652                 6.8035
 IR Inten    --      2.2695                 6.6475                 3.4034

                     58                     59                     60
                      A                      A                      A
 Frequencies --   3270.7204              3305.7437              3312.6336
 Red. masses --      1.1162                 1.1157                 1.1136
 Frc consts  --      7.0353                 7.1834                 7.1997
 IR Inten    --      1.9471                 1.7625                 3.6742

 - Thermochemistry -
 -------------------
 Temperature   298.150 Kelvin.  Pressure   1.00000 Atm.
 Atom     1 has atomic number  6 and mass  12.00000

 Molecular mass:   140.08373 amu.
 Principal axes and moments of inertia in atomic units:
                           1         2         3
     Eigenvalues --  1058.945061565.288671695.54054
           X            0.99696   0.07794   0.00123
           Y           -0.07748   0.98901   0.12591
           Z            0.00860  -0.12562   0.99204
 This molecule is an asymmetric top.
 Rotational symmetry number  1.
 Warning -- assumption of classical behavior for rotation
           may cause significant error
 Rotational temperatures (Kelvin)      0.08179     0.05533     0.05108
 Rotational constants (GHZ):           1.70428     1.15298     1.06440
    1 imaginary frequencies ignored.
 Zero-point vibrational energy     488861.7 (Joules/Mol)
                                  116.84075 (Kcal/Mol)
 Warning -- explicit consideration of  15 degrees of freedom as
           vibrations may cause significant error
 Vibrational temperatures:    137.19   162.32   205.53   253.36   264.15
          (Kelvin)            359.84   362.14   424.73   467.46   493.33
                              573.71   685.49   698.32   759.71   824.11
                              989.30  1076.31  1093.93  1210.98  1241.21
                             1309.65  1336.88  1407.51  1414.39  1445.35
                             1470.59  1490.00  1560.24  1595.40  1622.39
                             1683.43  1719.92  1770.98  1831.27  1903.29
                             1999.45  2027.65  2060.08  2095.63  2145.69
                             2185.74  2209.81  2222.56  2228.21  2333.70
                             2427.16  2530.42  4299.93  4423.92  4544.93
                             4574.91  4610.59  4622.20  4635.37  4662.62
                             4679.92  4705.84  4756.23  4766.14

 Zero-point correction=                           0.186198 (Hartree/Particle)
 Thermal correction to Energy=                    0.196566
 Thermal correction to Enthalpy=                  0.197510
 Thermal correction to Gibbs Free Energy=         0.151157
 Sum of electronic and zero-point Energies=           -462.002497
 Sum of electronic and thermal Energies=              -461.992129
 Sum of electronic and thermal Enthalpies=            -461.991184
 Sum of electronic and thermal Free Energies=         -462.037537

                     E (Thermal)             CV                S
                      KCal/Mol        Cal/Mol-Kelvin    Cal/Mol-Kelvin
 Total                  123.347             39.107             97.558
 Electronic               0.000              0.000              0.000
 Translational            0.889              2.981             40.723
 Rotational               0.889              2.981             29.420
 Vibrational            121.570             33.145             27.415
 Vibration     1          0.603              1.953              3.547
 Vibration     2          0.607              1.939              3.220
 Vibration     3          0.616              1.910              2.765
 Vibration     4          0.628              1.872              2.369
 Vibration     5          0.631              1.862              2.292
 Vibration     6          0.663              1.763              1.730
 Vibration     7          0.664              1.760              1.719
 Vibration     8          0.689              1.683              1.444
 Vibration     9          0.709              1.626              1.285
 Vibration    10          0.722              1.590              1.199
 Vibration    11          0.765              1.473              0.967
 Vibration    12          0.833              1.302              0.720
 Vibration    13          0.841              1.283              0.696
 Vibration    14          0.883              1.188              0.592
 Vibration    15          0.929              1.090              0.499

 Optimization completed.
    -- Stationary point found.
 Normal termination of Gaussian 16 at Fri Apr 15 22:01:13 2022.
