 Gaussian 16, Revision C.01,
 Gaussian 16:  AS64L-G16RevC.01  3-Jul-2019

 ----------------
 # M062X/def2tzvp
 ----------------

 ------------------------------------------
 DATS_13_endo_i_TZVPcreated by GaussianPrep
 ------------------------------------------
 Symbolic Z-matrix:
 Charge =  0 Multiplicity = 1

                         Standard orientation:
 ---------------------------------------------------------------------
 Center     Atomic      Atomic             Coordinates (Angstroms)
 Number     Number       Type             X           Y           Z
 ---------------------------------------------------------------------
      1          6           0       -2.265477   -0.137456   -0.524106
      2          6           0       -0.983396   -1.814014   -0.580965
      3          6           0        0.031263   -0.455733    1.706779
      4          6           0       -1.832974    0.717741    0.472848
      5          1           0       -2.004618    0.127621   -1.542723
      6          1           0       -3.179780   -0.707609   -0.389757
      7          1           0       -2.324105    0.790708    1.437200
      8          6           0        0.297846   -1.299345   -0.555166
      9          6           0        0.806208   -0.637220    0.590596
     10          1           0       -1.334629   -2.288555   -1.492316
     11          1           0        0.404651    0.172459    2.508494
     12          1           0       -1.440207   -2.192152    0.326908
     13          1           0       -0.795912   -1.112059    1.932223
     14          6           0       -0.786533    1.675910    0.134072
     15          8           0       -0.199510    1.658415   -0.937154
     16          1           0       -0.515726    2.415171    0.912534
     17          8           0        1.991385    0.031614    0.581308
     18          6           0        2.650271    0.222891   -0.656549
     19          1           0        3.521413    0.839121   -0.432977
     20          1           0        2.990237   -0.730652   -1.079185
     21          1           0        2.002537    0.744273   -1.367360
     22          1           0        0.837892   -1.215200   -1.491338
 ---------------------------------------------------------------------

 SCF Done:  E(RM062X) =  -462.372246135     A.U. after   16 cycles

 The electronic state is 1-A.
 Alpha  occ. eigenvalues --  -19.64851 -19.60367 -10.61098 -10.60249 -10.57757
 Alpha  occ. eigenvalues --  -10.56315 -10.55433 -10.55011 -10.54666 -10.54439
 Alpha  occ. eigenvalues --   -1.18583  -1.14800  -0.92521  -0.87385  -0.84458
 Alpha  occ. eigenvalues --   -0.77379  -0.73960  -0.71971  -0.62384  -0.60642
 Alpha  occ. eigenvalues --   -0.59588  -0.58073  -0.55554  -0.54751  -0.51274
 Alpha  occ. eigenvalues --   -0.49841  -0.48165  -0.47499  -0.46870  -0.46654
 Alpha  occ. eigenvalues --   -0.45361  -0.43075  -0.41787  -0.39394  -0.37968
 Alpha  occ. eigenvalues --   -0.32219  -0.28526  -0.27970
 Alpha virt. eigenvalues --   -0.03187   0.01924   0.06637   0.07684   0.09011
 Alpha virt. eigenvalues --    0.09363   0.10951   0.11788   0.12285   0.13103
 Alpha virt. eigenvalues --    0.14202   0.14642   0.14797   0.15845   0.17472

 Mulliken charges:
               1
     1  C   -0.331763
     2  C   -0.407047
     3  C   -0.432670
     4  C   -0.151800
     5  H    0.195931
     6  H    0.166515
     7  H    0.164684
     8  C   -0.098684
     9  C    0.303602
    10  H    0.165965
    11  H    0.169805
    12  H    0.187103
    13  H    0.162240
    14  C    0.123403
    15  O   -0.365564
    16  H    0.106990
    17  O   -0.287869
    18  C   -0.305820
    19  H    0.146814
    20  H    0.141884
    21  H    0.180810
    22  H    0.165471
 Sum of Mulliken charges =  -0.00000

 Dipole moment (field-independent basis, Debye):
    X=             -1.2967    Y=             -1.7227    Z=              0.5379  Tot=              2.2222
 Quadrupole moment (field-independent basis, Debye-Ang):
   XX=            -56.5447   YY=            -63.1961   ZZ=            -59.6269
   XY=              3.0491   XZ=             -4.4151   YZ=              5.1838

 Normal termination of Gaussian 16 at Tue Jun 21 11:23:56 2022.
