 Gaussian 16, Revision C.01,
 Gaussian 16:  AS64L-G16RevC.01  3-Jul-2019

 ----------------
 # M062X/def2tzvp
 ----------------

 --------------------------------------------
 DATS_13_endo_iii_TZVPcreated by GaussianPrep
 --------------------------------------------
 Symbolic Z-matrix:
 Charge =  0 Multiplicity = 1

                         Standard orientation:
 ---------------------------------------------------------------------
 Center     Atomic      Atomic             Coordinates (Angstroms)
 Number     Number       Type             X           Y           Z
 ---------------------------------------------------------------------
      1          6           0        1.592418    1.385898   -0.726054
      2          6           0       -0.257362    2.307206    0.024929
      3          6           0        0.023828   -0.104371    1.501304
      4          6           0        1.873774    0.269251    0.034707
      5          1           0        1.194234    1.255070   -1.727926
      6          1           0        2.139470    2.308052   -0.559591
      7          1           0        2.556282    0.320038    0.878460
      8          6           0       -1.172438    1.285835   -0.092804
      9          6           0       -1.022524    0.076516    0.629181
     10          1           0       -0.359973    3.184215   -0.607277
     11          1           0        0.194585   -1.088632    1.924019
     12          1           0        0.279206    2.476365    0.951162
     13          1           0        0.467603    0.738436    2.011039
     14          6           0        1.610821   -1.075615   -0.504492
     15          8           0        2.130198   -2.097946   -0.118888
     16          1           0        0.873249   -1.084587   -1.340973
     17          8           0       -1.763097   -1.038144    0.356285
     18          6           0       -2.622668   -1.018115   -0.760354
     19          1           0       -3.067594   -2.011663   -0.813382
     20          1           0       -3.420111   -0.273899   -0.645240
     21          1           0       -2.073540   -0.817961   -1.689453
     22          1           0       -1.875322    1.323666   -0.918519
 ---------------------------------------------------------------------

 SCF Done:  E(RM062X) =  -462.365724845     A.U. after   16 cycles

 The electronic state is 1-A.
 Alpha  occ. eigenvalues --  -19.65929 -19.60610 -10.61660 -10.60837 -10.59552
 Alpha  occ. eigenvalues --  -10.56727 -10.55842 -10.55455 -10.55334 -10.55047
 Alpha  occ. eigenvalues --   -1.19654  -1.15361  -0.93232  -0.88183  -0.85227
 Alpha  occ. eigenvalues --   -0.78433  -0.73789  -0.71845  -0.64817  -0.62387
 Alpha  occ. eigenvalues --   -0.60255  -0.56833  -0.55674  -0.53891  -0.53714
 Alpha  occ. eigenvalues --   -0.50394  -0.48901  -0.48518  -0.47408  -0.46777
 Alpha  occ. eigenvalues --   -0.45878  -0.43960  -0.43325  -0.40566  -0.38804
 Alpha  occ. eigenvalues --   -0.32141  -0.29243  -0.28168
 Alpha virt. eigenvalues --   -0.02869   0.01556   0.05507   0.06330   0.07310
 Alpha virt. eigenvalues --    0.08967   0.10121   0.11159   0.11957   0.12578
 Alpha virt. eigenvalues --    0.12859   0.13572   0.14420   0.15539   0.16649

 Mulliken charges:
               1
     1  C   -0.377596
     2  C   -0.383703
     3  C   -0.402628
     4  C   -0.119716
     5  H    0.176204
     6  H    0.174776
     7  H    0.172607
     8  C   -0.130247
     9  C    0.263317
    10  H    0.162918
    11  H    0.192088
    12  H    0.180998
    13  H    0.175975
    14  C    0.104843
    15  O   -0.303349
    16  H    0.076500
    17  O   -0.275564
    18  C   -0.298361
    19  H    0.157325
    20  H    0.151346
    21  H    0.142115
    22  H    0.160152
 Sum of Mulliken charges =  -0.00000

 Dipole moment (field-independent basis, Debye):
    X=             -2.2381    Y=              3.9459    Z=             -1.2575  Tot=              4.7075
 Quadrupole moment (field-independent basis, Debye-Ang):
   XX=            -63.5793   YY=            -65.4694   ZZ=            -58.4916
   XY=              9.3754   XZ=              5.3921   YZ=              0.5541

 Normal termination of Gaussian 16 at Tue Jun 21 11:23:49 2022.
