 Gaussian 16, Revision C.01,
 Gaussian 16:  AS64L-G16RevC.01  3-Jul-2019

 ----------------
 # M062X/def2tzvp
 ----------------

 -------------------------------------------
 DATS_13_exo_iii_TZVPcreated by GaussianPrep
 -------------------------------------------
 Symbolic Z-matrix:
 Charge =  0 Multiplicity = 1

                         Standard orientation:
 ---------------------------------------------------------------------
 Center     Atomic      Atomic             Coordinates (Angstroms)
 Number     Number       Type             X           Y           Z
 ---------------------------------------------------------------------
      1          6           0       -1.213433    1.454079    0.860923
      2          6           0        0.337991    2.025288   -0.610598
      3          6           0       -0.061607   -0.762828   -0.978283
      4          6           0       -1.453720    0.098980    0.743487
      5          1           0       -0.634345    1.837234    1.692012
      6          1           0       -1.923199    2.153874    0.424333
      7          1           0       -1.008344   -0.619358    1.423404
      8          6           0        1.342336    1.119667   -0.358420
      9          6           0        1.137403   -0.272715   -0.522677
     10          1           0        0.504496    3.076204   -0.393556
     11          1           0       -0.250394   -1.830513   -0.950747
     12          1           0       -0.415347    1.831278   -1.364967
     13          1           0       -0.668050   -0.176684   -1.654842
     14          6           0       -2.635173   -0.359062   -0.003857
     15          8           0       -3.100541   -1.475241    0.034356
     16          1           0       -3.097639    0.429175   -0.643866
     17          8           0        2.013920   -1.204192   -0.041983
     18          6           0        3.148470   -0.759462    0.665421
     19          1           0        3.694821   -1.658593    0.950473
     20          1           0        3.794361   -0.130800    0.040328
     21          1           0        2.871457   -0.203689    1.570114
     22          1           0        2.211549    1.463651    0.192362
 ---------------------------------------------------------------------

 SCF Done:  E(RM062X) =  -462.364377230     A.U. after   16 cycles

 The electronic state is 1-A.
 Alpha  occ. eigenvalues --  -19.65976 -19.61136 -10.61966 -10.60762 -10.59628
 Alpha  occ. eigenvalues --  -10.56642 -10.55867 -10.55480 -10.55249 -10.54908
 Alpha  occ. eigenvalues --   -1.19667  -1.15814  -0.93163  -0.88291  -0.85184
 Alpha  occ. eigenvalues --   -0.78428  -0.73526  -0.72168  -0.64805  -0.62537
 Alpha  occ. eigenvalues --   -0.60205  -0.56935  -0.55655  -0.54126  -0.53825
 Alpha  occ. eigenvalues --   -0.50517  -0.48786  -0.48130  -0.47667  -0.46962
 Alpha  occ. eigenvalues --   -0.45691  -0.44117  -0.43606  -0.40575  -0.38889
 Alpha  occ. eigenvalues --   -0.32447  -0.29438  -0.27950
 Alpha virt. eigenvalues --   -0.02904   0.00931   0.05667   0.06763   0.07171
 Alpha virt. eigenvalues --    0.08757   0.09973   0.11186   0.11918   0.13030
 Alpha virt. eigenvalues --    0.13319   0.13957   0.14358   0.15511   0.16414

 Mulliken charges:
               1
     1  C   -0.388294
     2  C   -0.375381
     3  C   -0.443797
     4  C   -0.126895
     5  H    0.168059
     6  H    0.185017
     7  H    0.182540
     8  C   -0.134528
     9  C    0.338729
    10  H    0.161892
    11  H    0.185934
    12  H    0.171750
    13  H    0.188416
    14  C    0.075433
    15  O   -0.300079
    16  H    0.086635
    17  O   -0.281248
    18  C   -0.303448
    19  H    0.155450
    20  H    0.151516
    21  H    0.145342
    22  H    0.156957
 Sum of Mulliken charges =  -0.00000

 Dipole moment (field-independent basis, Debye):
    X=              3.3125    Y=              3.7200    Z=              0.6064  Tot=              5.0179
 Quadrupole moment (field-independent basis, Debye-Ang):
   XX=            -65.1847   YY=            -62.8784   ZZ=            -61.0051
   XY=             -7.8681   XZ=              5.4140   YZ=             -0.2645

 Normal termination of Gaussian 16 at Tue Jun 21 11:23:46 2022.
